582
Atoms. Timestep: 1790001
Si 9.17509 7.33555 -7.88905
O 9.5466 8.31456 -9.21765
H 9.75382 7.83365 -10.0103
Si 4.37473 0.0673621 10.0979
O 3.70052 -0.163215 11.6176
H 3.42137 0.633209 12.0538
Si 8.93802 4.59811 -9.56348
O 9.17468 5.2572 -11.1461
H 9.74356 4.74761 -11.7111
Si 7.16266 1.43754 9.67177
O 7.95374 2.19713 10.9884
H 8.81163 1.81801 11.1394
Si 9.40452 7.49231 7.0566
Si -9.43013 8.58378 7.71716
Si -2.63224 8.65395 -4.30563
Si 8.56653 -1.72293 -7.11714
Si -7.63412 -1.91096 -6.40006
Si 6.61322 -10.0103 -1.85051
Si -7.9472 -4.18876 -4.49603
Si 4.15406 -4.77546 -1.47016
Si 3.67133 -8.91457 1.25765
Si 2.671 -4.92669 2.73583
Si 1.77868 0.470262 5.33673
Si 4.43326 -3.70191 4.59035
Si -10.0917 9.12711 -2.80583
Si -8.45999 0.710788 4.55065
Si 8.57488 -6.08671 -4.6019
Si 2.19212 -6.43366 -0.0127239
Si -3.54522 7.47584 4.3401
Si -0.263229 3.48114 0.119628
Si -5.97409 -5.54354 5.81726
Si -8.17289 10.1888 4.17844
Si 3.71875 1.08037 -5.7886
Si -8.58691 -1.86299 0.0507063
Si 5.23721 7.86934 1.14068
Si -10.1468 4.71056 -3.66474
Si -4.62324 -2.79875 3.80829
Si 8.73916 1.80549 2.71618
Si 8.26645 8.34547 -1.56339
Si 6.78858 -8.27019 0.75176
Si 9.25989 -2.99813 7.02866
Si 3.1742 -9.43087 4.37951
Si -1.79086 -0.319445 -1.35861
Si -7.7045 -6.97539 8.14097
Si 3.12404 3.5982 -8.82352
Si -4.56421 -9.52109 -7.16774
Si 6.62393 8.62477 6.12638
Si -6.58788 -10.4384 0.12998
Si 10.3773 1.78754 -2.35484
Si -0.564563 -5.84485 -1.3191
Si 3.38456 2.7043 4.08988
Si -3.39348 5.08671 -6.57397
Si -1.11611 0.281501 4.29194
Si 5.75597 2.35746 2.01953
Si -2.73163 9.99863 2.76906
Si -2.15941 2.76217 5.89033
Si -10.1205 2.28645 6.75082
Si 9.56246 -8.87901 1.99428
Si 7.5617 0.439824 -1.68142
Si -0.437838 -6.58082 6.99808
Si -8.33099 2.50867 -0.265819
Si -8.39468 5.25032 3.82479
Si 3.68941 7.45819 6.2469
Si -3.74337 -3.43578 1.06778
Si -0.0119359 -3.77643 2.64407
Si 7.43026 -6.65847 5.54489
Si -10.1331 9.03437 -6.07545
Si -1.92397 8.11305 0.504728
Si 5.3247 -5.1171 -7.27053
Si -1.93527 1.02659 1.41489
Si -5.0195 -3.96031 -3.32746
Si -2.58482 0.739145 -5.91493
Si -5.29503 7.21278 -3.30636
Si 0.00745677 1.9173 -2.60471
Si -7.78548 -6.87495 -6.00284
Si 4.55391 -8.11406 -6.73746
Si -4.54169 -0.985787 -2.77325
Si -6.02814 -0.732438 5.70307
Si 9.82224 -0.333148 -4.56418
Si 8.25399 2.04177 -5.78285
Si -1.01174 0.233203 -9.05728
Si -10.01 -2.61007 -2.62467
Si 7.89549 4.77022 -4.19848
Si -1.16657 5.33342 4.39758
Si -5.00659 2.3 5.71646
Si 2.32151 -0.130858 -3.36729
Si -3.31995 -6.49824 5.42413
Si 2.12144 -2.89719 -4.78168
Si -5.12101 -8.04741 8.5045
Si 1.20509 9.29302 4.15122
Si -6.19194 -5.72341 3.3106
Si 1.37848 4.49534 2.44717
Si 7.07841 9.3093 3.18812
Si 6.19374 -9.59932 5.09616
Si -8.43223 4.54504 -6.36659
Si -10.388 2.77288 -7.96077
Si -3.55725 4.80249 -2.11592
Si 3.41374 4.3468 6.60516
Si -0.504487 -9.62302 7.19144
Si -1.02265 -2.88408 -0.191907
Si -8.89329 -5.43886 4.75891
Si -5.25407 -0.475902 -5.90387
Si 1.02793 -2.24245 8.67587
Si -10.1708 -6.88922 -0.117323
Si 6.38548 -1.52129 -3.56115
Si -1.34081 -9.66592 -3.54824
Si 1.14982 -7.11085 4.43886
Si -6.69677 6.90446 7.30755
Si 0.945647 -1.81163 -8.7046
Si 2.90695 7.18851 3.14171
Si 5.44045 4.88403 0.387859
Si -9.21341 -9.52718 6.88505
Si 9.71485 6.81631 0.833593
Si -6.53377 7.64719 4.21022
Si 1.734 0.775266 8.57192
Si -3.63553 7.39412 7.53308
Si -3.65129 10.4242 -0.0460997
Si 3.8749 9.90404 -0.901483
Si -5.31566 -5.47455 -0.644244
Si 8.66519 -9.80064 -6.85839
Si -9.91523 -0.130449 -7.38066
Si -4.62776 -9.17397 5.58441
Si 0.385005 4.58367 -8.24985
Si -6.62229 2.21204 -5.31853
Si 4.52381 8.3676 -5.72966
Si -2.91905 5.143 0.830684
Si 0.363361 3.32336 7.74846
Si -7.00256 9.73297 -6.43445
Si -4.73746 -6.55981 -6.49291
Si 7.22456 0.808387 5.31708
Si 1.81542 0.928095 -7.99343
Si 1.18559 9.8918 -2.51569
Si 6.27461 -4.28522 7.12844
Si 10.0544 -3.37297 3.91558
Si 10.1686 -7.80558 4.9802
Si 7.42887 -4.51644 3.2256
Si -6.43769 -3.17757 7.46996
Si -4.0429 -5.17713 8.17027
Si -6.33578 -8.88532 2.91614
Si -2.78861 -4.35907 -5.57013
Si -8.51119 0.151913 -4.06041
Si -8.95549 5.46352 -0.870399
Si 9.09051 0.0473109 7.76565
Si -6.89506 -9.31898 -4.10496
Si -7.85409 -4.99883 0.716128
Si -10.3231 -0.703923 2.50381
Si -2.92262 -7.43178 0.0784871
Si 3.41238 4.26811 -3.73847
Si 2.49767 -4.10609 -7.66748
Si -1.52562 -1.66797 -6.82605
Si -0.906726 7.12506 -7.176
Si 0.55537 3.87546 -5.00676
Si 5.89958 10.3458 -7.76171
Si -2.14032 -5.86656 2.56203
Si 3.35818 6.06181 -1.40167
Si 5.88851 7.02713 -3.24124
Si 6.18706 -1.6772 3.6074
Si -2.36545 9.65214 -7.34311
Si 9.04945 -4.83723 -1.7159
Si -3.80905 2.90747 -4.31057
Si 4.04489 -1.64162 -1.41779
Si -6.85565 0.194521 -1.33372
Si 1.55156 -6.90908 -6.5661
Si 0.625632 7.35769 -1.00683
Si 6.15326 -0.161708 -6.41526
Si -0.924637 6.09161 -3.44115
Si 6.12813 2.98069 7.13818
Si 6.71196 -5.14641 0.320591
Si 1.36635 9.00238 -5.57321
Si -0.0685214 -9.44481 -6.43623
Si 2.43463 -2.36186 5.99439
Si 6.02699 7.50318 -8.08705
Si -9.14222 -4.45651 7.8443
Si -7.41824 8.09655 -1.15198
Si -8.92007 -9.23006 -1.71889
Si -0.729099 6.20382 7.42641
Si -7.59005 3.96683 6.62079
Si 0.0853215 -5.24384 -4.31455
Si -4.26675 2.92043 2.53795
Si -2.12406 2.73777 -8.27717
Si -0.68553 -9.36108 3.96879
Si -1.19921 -3.95873 8.07353
Si -6.15888 6.71053 -6.2363
Si 9.46054 4.83322 3.20805
Si 1.03323 8.69999 7.00984
Si 10.2075 -7.05333 -6.87647
Si 5.01625 -4.12032 -4.26371
Si -7.33633 2.73292 2.44398
Si 10.2535 9.29543 2.49905
Si 4.60011 4.12586 -6.3108
Si 8.66396 4.58407 6.13692
Si 5.96627 -0.323293 0.70543
Si 8.37797 -4.71938 -7.33568
Si 4.10022 -2.60272 8.53156
Si -4.03034 -8.50525 -4.25949
Si 5.91858 4.67083 -8.97647
Si -1.72376 -2.72767 5.17473
Si -3.46028 10.4395 7.93196
Si 6.78612 -8.60104 -4.60403
Si 6.08398 3.20198 -2.19555
O 10.2007 7.95568 8.4443
O 9.01231 -4.4228 3.27948
O 6.19338 -0.645364 -4.85109
O 1.71265 4.34811 -9.07403
O -1.42635 4.50722 0.438187
O -3.49856 -8.0987 5.3659
O 9.43664 -1.54473 7.68112
O 2.60664 10.0598 -1.91926
O -3.22137 9.0391 3.89514
O -5.31614 -4.07857 8.33355
O 8.81262 -5.36779 -3.21669
O 5.08922 -6.74574 -7.42478
O -6.2436 7.8289 -2.20215
O 8.76829 -3.20243 -7.56006
O -0.00719642 4.96041 3.35484
O 5.38159 9.6353 -6.35001
O 9.70061 -8.50005 3.60869
O -0.0598099 4.88384 8.11159
O 3.58321 3.87239 5.0923
O 2.87131 -7.77018 0.533063
O 2.81995 -0.76777 -1.98196
O 2.59688 8.37376 7.03532
O 3.16515 0.747419 9.26445
O 2.53484 -2.84665 9.11845
O 2.13021 -8.35632 4.86557
O 4.63461 0.123207 -6.71496
O -2.67232 -4.50086 8.55029
O -9.6078 -7.88009 -1.25824
O 2.71916 2.02921 -8.7957
O -2.58301 -2.78418 0.103921
O 4.83115 -2.2634 3.96897
O -4.29787 -6.64374 8.78721
O 3.41477 0.566623 -4.28448
O -6.06568 -10.1422 -7.16673
O -0.271603 -5.84484 -2.87054
O 8.85989 -1.2509 -5.61419
O -9.31681 -0.157891 3.5935
O 7.55887 7.48383 -7.51992
O 7.35816 -7.09768 -4.36637
O 2.95721 8.59581 -5.83099
O -3.60944 2.73109 6.62838
O 4.0684 7.62568 2.15542
O -8.66354 -1.12354 -7.39445
O -10.417 -8.92003 6.07719
O -6.88141 -5.62936 -0.434445
O -4.0638 8.14897 -3.73523
O -2.81104 6.73903 0.860562
O 2.52205 -5.41349 1.20597
O -6.08295 -1.71314 -6.56732
O -2.30966 6.45528 3.97983
O -4.83834 -4.2032 0.249069
O 7.30756 2.07724 2.00554
O -8.14439 -5.71489 -4.9078
O -4.82783 5.92231 -6.58196
O -7.8017 -9.46281 3.39372
O 10.2991 1.08646 7.69964
O 6.44696 10.2236 6.13658
O 5.38845 1.14788 1.10737
O -7.12705 5.32718 7.33405
O -1.20857 0.9987 -2.08991
O -2.05945 9.9797 -3.60622
O 5.14657 7.91881 -4.3727
O 3.39179 -9.12514 2.81471
O -2.74311 9.10087 -5.84909
O 0.590694 10.2299 7.42949
O 5.38086 -8.39975 -5.37438
O 4.64591 3.42117 -2.99759
O -5.19278 0.729353 5.86186
O -6.32293 3.08105 6.20322
O -2.94535 -4.61051 1.81286
O -3.83782 -0.0835857 -6.3558
O 7.35809 3.83759 -2.92211
O 0.543912 8.8848 -1.48541
O 10.2642 -7.83005 1.05166
O 6.80226 -4.77613 -7.70704
O -5.02946 -5.10538 -2.2435
O -1.97548 -6.51984 6.52716
O -9.98517 9.10364 -4.41222
O -3.75625 -4.03478 -4.30598
O -0.0858883 5.21694 -4.42502
O -2.67638 -8.72283 -3.44199
O -4.28749 -9.43454 8.78548
O -7.66936 -0.176151 -2.70713
O -6.93235 9.18509 4.03997
O -9.58928 1.87966 -1.1495
O 2.14659 6.97201 -0.813725
O -4.56905 5.89576 -2.83087
O -10.023 5.2493 3.63543
O 6.99046 7.76208 -2.34379
O 2.50352 10.1184 4.54124
O -8.41115 -10.2772 5.68682
O 4.59064 -1.37521 9.3448
O 8.89956 1.07824 -4.60558
O 0.911871 4.15209 0.958777
O 4.56544 -9.39312 5.06484
O 3.93448 5.18192 -0.206033
O -7.32094 3.39861 -6.15673
O -5.41288 -1.5956 4.42856
O 9.62556 8.37769 -2.35982
O -10.3145 8.14265 6.36172
O -1.40259 -4.98251 -5.03703
O -9.60462 -4.28178 3.89325
O -0.711184 -9.19896 -4.9747
O -2.14549 5.25336 -2.72439
O 5.72557 8.99222 -8.6532
O 9.0805 5.87547 1.97143
O 9.13114 5.93735 6.81362
O -4.8828 -2.54935 -2.46413
O 5.21593 -4.8463 -5.6526
O 2.31703 5.7616 2.71164
O -1.69787 9.06433 1.84415
O 6.27424 -1.10888 2.07957
O 1.76854 -1.40327 -4.26783
O 10.3852 -1.58618 -3.7189
O -9.12713 -4.90571 6.26916
O -1.99716 1.42525 4.97995
O 7.5026 -10.337 -7.76716
O 1.1611 9.19143 -3.98293
O -5.43095 -8.98931 -3.58558
O 3.645 -3.26514 -4.4358
O 6.85866 -5.80812 6.82591
O 6.98564 -8.22749 5.3959
O 7.62281 -3.43057 7.2038
O 9.91547 3.35473 -9.2821
O 8.15807 0.312676 6.48875
O -10.3171 5.90506 -0.0219215
O -10.0669 -10.3238 -2.08468
O -1.54351 -0.494279 -5.70535
O -7.73508 4.20796 2.83942
O -3.3487 4.14928 -5.26712
O 2.17199 -3.33057 -6.34693
O -0.778251 -1.54085 -1.08375
O -5.33781 -8.4245 6.89912
O 8.23349 1.52456 4.22598
O -7.11213 -5.11443 2.11075
O -9.493 9.51824 3.54691
O 4.77669 2.30624 3.31308
O 2.20979 3.25402 3.0545
O -2.72881 9.13046 -0.41941
O -1.47894 -1.15352 5.02324
O -8.34478 2.3321 1.30407
O 3.4854 5.95715 6.78445
O -5.81727 2.81237 1.95882
O -7.7026 6.71666 3.64965
O -0.516755 7.38302 0.208177
O -9.40851 5.4005 -2.39299
O 7.72944 -9.24468 -5.664
O 5.76654 4.40281 -7.34338
O 3.54272 -10.1611 0.312282
O -3.73377 4.75346 -0.542536
O 1.00513 -3.92077 -4.18282
O -1.8425 -6.78879 -0.916156
O 0.552506 -6.41225 5.76035
O 6.85082 2.4139 8.4761
O -4.58686 2.68913 4.18047
O 6.24684 -3.03645 -4.00667
O 1.65172 8.20274 3.05268
O 4.71355 6.53127 -2.24918
O 4.4736 2.51773 -5.78635
O 5.29398 -8.50355 1.2397
O -7.08243 1.7138 -0.939552
O 9.44031 2.43999 -6.88696
O 1.81313 0.652778 6.94472
O 4.54097 3.94686 -9.44627
O 5.26289 -5.06074 -0.320205
O -10.0776 0.0801208 -5.78817
O 5.22907 7.92606 6.50991
O -7.84511 1.54844 -4.45548
O -9.54355 -1.19419 1.25285
O 1.81967 -5.60626 -7.51678
O 0.0516456 7.54543 7.69608
O -3.75106 3.37571 -2.75242
O -8.17465 4.59712 5.27056
O 7.0625 1.18597 -6.39075
O 0.0628056 6.50288 -2.22789
O -1.57539 7.42437 -4.06686
O -7.99016 7.80295 7.82119
O 0.788408 2.15006 8.70466
O -1.94002 -0.734265 -8.13683
O -3.04251 -0.78383 -2.30781
O -5.38919 2.7437 -4.56412
O -0.161504 2.6982 -4.03519
O 9.79877 -6.88157 -5.33835
O 4.12021 -4.6462 3.34048
O 4.67052 3.63475 7.28548
O -9.15208 -5.8652 0.575519
O 6.56312 -10.2054 3.68694
O 6.78736 8.36057 4.50174
O 1.77911 -3.21377 -8.82307
O -7.82158 6.61401 -0.601453
O 10.2676 7.66131 -6.74108
O 10.4747 3.23059 -3.08083
O -8.90281 -3.48069 -3.43622
O -5.41689 -9.3622 4.24137
O -1.4266 0.263235 2.68801
O 5.48053 3.89069 1.58239
O -9.35406 10.1574 7.83699
O -0.698745 -9.47436 5.59354
O -0.804606 -4.32405 -0.860085
O 1.04464 10.4513 -6.2095
O -6.36799 -6.39632 -6.64634
O -6.59402 -7.61856 9.06596
O -6.04609 -1.66869 7.03559
O 0.554072 4.0265 -6.63528
O -2.14597 1.88742 -6.92708
O 7.11428 -5.76404 4.20375
O 5.8928 6.30699 -9.11517
O -8.11388 -3.37914 0.384287
O -9.48985 -1.8678 -1.31514
O -4.33228 -7.07105 -4.97257
O 9.23062 5.81966 -8.54571
O -9.50965 3.96952 -7.37934
O -0.207388 -8.06338 7.6241
O 4.82739 -5.00023 -2.97496
O -6.59786 7.34083 5.79339
O -8.01964 -9.24003 -3.0002
O -2.21953 0.222442 0.0571963
O 8.00862 -8.89511 1.59859
O -0.856988 3.7284 -8.74172
O -8.61686 -8.11432 7.408
O -0.119375 -0.972407 -9.73029
O 0.228707 1.0324 -8.28521
O 8.17567 0.373168 9.13006
O 5.44176 -4.14903 5.71807
O 8.56866 4.81229 4.54142
O -0.819168 2.10713 0.888756
O 4.99542 7.24697 -6.87673
O 4.52808 8.61017 -0.165265
O 0.0610103 3.01839 -1.41259
O -4.21304 -5.51772 6.56234
O 9.80974 10.1686 -6.44074
O 10.2976 -3.88678 7.83052
O 7.17772 4.05635 6.52864
O -9.71834 1.30489 -8.01634
O -3.78725 10.2211 1.56859
O 7.66908 9.87398 -1.28751
O -7.26526 9.12165 0.0588392
O -5.39298 -0.043906 -1.79231
O 5.78938 0.862893 10.1584
O 6.05586 4.06726 -0.834773
O 8.31774 -4.97456 -5.73596
O 6.79372 -9.51994 -3.37834
O 0.66815 -6.42973 -0.448458
O -6.76851 -6.28386 6.9893
O 2.2759 1.15247 -6.50687
O -6.23925 8.32145 -6.68692
O 9.01466 -6.85812 5.56581
O -4.97196 -0.739704 -4.28882
O -8.64064 -5.78862 8.59203
O -8.62703 9.41927 -6.5866
O -3.59356 7.4411 5.96027
O -7.39746 -0.789764 -0.149538
O 10.0052 -2.00901 3.1254
O -7.26425 -5.70563 4.60444
O -3.70581 -5.30935 -6.4696
O -1.90456 -10.1027 7.80947
O -7.76363 -9.63852 -0.605856
O 3.40201 7.21518 4.6883
O 2.93106 -3.62244 5.23631
O 5.15791 10.3905 -1.73701
O 6.86734 -4.48828 1.73955
O 9.74756 3.35102 6.40183
O 4.99293 -9.30269 -7.7181
O -0.246439 -5.24185 7.85331
O 4.25905 4.91916 -4.96051
O -8.01535 -3.39733 -5.90503
O 8.66873 7.59438 -0.144317
O 2.15379 3.6599 -4.5142
O 9.533 -8.50929 -7.28967
O 7.96277 8.12583 6.79932
O 6.80986 5.99982 -4.06982
O -9.99044 0.651487 -3.41249
O -2.35449 6.43532 7.8323
O 1.31378 0.977822 -2.80596
O -2.26019 -3.00421 -6.30956
O 0.218931 7.91978 -6.24768
O 5.2059 -1.38793 -2.48162
O -5.09379 -6.36862 4.73034
O -9.18572 -6.99363 -6.85668
O 7.39566 4.23109 -9.35525
O 1.1087 -0.667536 8.98253
O -3.24298 1.81029 1.98658
O -0.440297 -2.87266 8.94112
O -0.032671 -1.93714 -7.39698
O 7.10063 -6.71557 0.589579
O 9.75985 -0.879169 -7.82791
O 1.56295 -3.77734 2.70757
O -0.0558582 6.11915 -8.04096
O 3.37349 4.11036 -7.31825
O -2.04213 -9.68682 3.26454
O 7.11299 -3.02465 3.83581
O -6.12959 6.80233 -4.65458
O -2.89649 -9.06233 -0.18958
O -2.65493 -5.98819 4.05486
O 7.61396 -0.75213 -2.75798
O -1.25852 -10.2398 -7.25032
O 9.69135 0.561617 2.25938
O -9.47958 1.53054 5.50176
O -5.18279 6.90941 7.90966
O 3.73342 -3.22535 -1.36979
O 0.0774951 -9.89064 -2.72297
O 9.86517 -5.87909 -0.874676
O -4.40162 -6.77562 -0.18416
O 9.49394 -5.87632 -7.65898
O 1.91929 3.74923 7.04266
O -2.48226 -7.06476 1.55502
O -7.32094 -8.18981 -5.21165
O -3.2962 -2.99518 4.69388
O 7.16743 -0.223931 -0.277413
O -6.24728 -3.96287 6.1062
O -0.585648 5.89245 5.84282
O 6.24472 8.78759 1.95459
O 0.529944 -8.08538 -7.00902
O -8.3126 4.06442 -0.536972
O 9.47482 3.25729 2.67019
O 4.76038 -1.11743 -0.0748034
O -3.61279 10.4615 -7.89588
O -4.48606 -7.92454 -7.39918
O -2.13397 6.07995 -6.65652
O -3.20273 3.88053 -7.7851
O -9.60268 -6.79455 4.59169
O 3.72306 -2.04913 7.068
O -7.49827 -0.212259 5.37682
O 2.78212 5.10263 -2.5862
O 0.665545 8.64124 5.45231
O -8.72873 8.58263 -2.10773
O 5.22333 -3.81552 8.24799
O 6.16596 1.68851 6.104
O 6.61345 -0.433474 4.54373
O -1.50326 -3.35221 6.57821
O -5.04702 7.29259 3.80492
O -1.95062 4.04296 4.86232
O -0.0833599 -7.93126 3.73435
O 9.61505 -3.03892 5.43602
O -4.11869 -10.4848 6.38848
O 7.66949 -4.61271 -0.835381
O 4.04525 -4.33093 -7.84805
O -7.61533 1.72994 3.65578
O -6.89401 10.2791 -4.88481
O -6.04142 0.909846 -6.13439
O -5.31487 -4.30562 3.64568
O 0.944164 -6.26121 -5.19952
O 2.07194 -1.07573 5.07062
O 9.88856 -3.50258 -1.95707
O 2.86717 1.4091 4.80963
O -1.69034 8.29429 -7.93133
O -4.02406 -9.47932 -5.55651
O 0.269866 10.4149 3.65049
O -6.12723 -7.3054 2.71748
O -0.790246 2.78274 6.8003
O -5.1194 10.3945 -0.574997
O -9.23655 4.69376 -4.97494
O -7.54313 5.84435 -6.67579
O -1.98379 1.50152 -9.35945
O 0.411275 0.73869 4.61045
O -4.21767 -2.48881 2.26639
O 8.9753 1.1824 -1.75596
O -7.95198 -0.99906 -5.00106
O 10.4901 8.05572 1.55337
O -0.689341 -5.26168 2.44426
O -3.45017 8.88543 8.16848
O -3.64779 4.34459 1.98651
O 7.88357 3.57844 -5.24456
O 2.92452 -5.74799 -1.3304
O 6.67866 -8.85987 -0.790494
O -0.32358 -2.9488 1.31186
O 2.05497 -6.11588 3.58928
O -3.06488 1.5721 -4.63901
O 9.37439 5.27382 -4.07027
O -7.98099 -3.38282 7.85298
O 10.2398 -10.3595 1.66751
O 2.00882 -0.645461 -8.44155
O 1.19758 -2.51208 7.01143
O 3.0479 -7.70169 -6.42231
O 5.86287 6.42132 0.660361
O 6.4333 1.64846 -2.04982
O -6.30872 -9.58802 1.49723
O 7.04078 -1.21469 -7.27344
O -6.45525 -3.99417 -4.04865
O -8.84386 3.15694 7.23017
O -0.763059 -3.36096 3.99002
O 8.72652 9.23124 3.06228
