588
Atoms. Timestep: 1790001
Si 3.42363 -2.50277 -11.1148
O 3.46287 -2.59494 -12.8208
H 2.62949 -2.79528 -13.2304
Si 5.67254 -4.71503 -10.3208
O 6.51544 -4.97842 -11.7737
H 6.14652 -4.46639 -12.4837
Si -5.65655 -2.49839 9.58996
O -5.92468 -2.57732 11.2451
H -6.82936 -2.68392 11.5147
Si 1.43943 5.14755 -9.30061
O 1.35578 6.2604 -10.591
H 2.01059 6.21189 -11.2776
Si 7.43551 -4.21607 9.41213
O 7.46963 -4.06988 11.1783
H 7.90728 -4.76852 11.6504
Si 3.63521 3.14159 -10.3897
O 3.98384 3.70303 -11.9261
H 4.9129 3.72278 -12.1236
Si -2.7849 -1.16722 9.45337
O -2.3985 -1.27774 11.1138
H -3.1566 -1.37774 11.6775
Si 4.33085 -4.85225 9.31994
O 4.18583 -4.69383 11.0072
H 4.88219 -4.20973 11.4353
Si -5.01339 1.24001 6.13619
Si 0.732375 -4.63762 0.393962
Si 7.75532 2.66357 1.77138
Si -6.44139 -4.82598 7.57176
Si 0.954601 0.146253 0.0977811
Si -4.01871 -4.26529 -2.24592
Si -6.3889 7.69582 -0.368454
Si 3.50018 -0.757491 6.17395
Si -8.64152 -3.35497 -0.69615
Si -1.48585 8.7313 -8.19057
Si 1.12359 -0.60889 -2.94994
Si 4.74222 2.19446 -1.03703
Si -9.14983 5.98708 -6.72875
Si 0.0616702 -1.12791 8.06319
Si 1.09898 -3.85986 3.52238
Si 3.45047 9.22643 -2.14086
Si -8.79253 -8.39643 -0.0189081
Si 5.61808 -10.0013 7.66518
Si 9.33149 6.95503 4.63683
Si 4.6807 8.01572 7.66134
Si 8.75504 -9.71573 7.50806
Si -8.07148 -5.64603 1.3286
Si -4.79358 5.71535 -5.11202
Si -5.83629 -3.74513 2.22369
Si 3.51414 -6.46441 -9.06918
Si 0.336567 -8.37842 -3.84505
Si 3.13492 6.95188 -7.27964
Si 7.3842 0.120438 3.45066
Si 8.91658 6.80578 -6.74197
Si -8.04466 1.40723 -5.46218
Si 3.89479 3.53074 8.1831
Si -4.97861 8.33381 7.1096
Si -3.86445 5.9939 -0.363372
Si 9.85513 3.91486 3.86549
Si 1.0891 5.74618 0.0224071
Si -1.81287 -4.84059 -4.09213
Si -8.39578 3.69933 2.30381
Si -3.45037 -0.911348 4.44588
Si 6.77254 3.0581 7.26652
Si -1.35238 -6.74881 0.516125
Si 2.26102 -1.94427 -6.55274
Si -8.41336 -7.26022 3.97866
Si -5.88741 -10.4081 -5.25026
Si -4.05958 0.717569 1.94441
Si 6.24176 -1.43518 -3.26451
Si -5.10026 6.49198 4.74192
Si -4.95572 -3.70855 4.93587
Si 6.2863 7.5028 5.05919
Si -3.38103 -7.24768 -8.98174
Si 8.5659 -9.20974 4.3782
Si -7.63023 9.91342 6.77384
Si 4.46786 -5.98554 -6.05573
Si 2.12275 -3.21155 7.66863
Si 5.79008 -9.75288 -2.48746
Si 1.52474 6.93302 2.90772
Si 2.54943 -6.24022 -3.55214
Si -10.2913 -3.63896 -3.29062
Si -3.39572 -3.99641 -6.64733
Si 8.1834 4.18233 -4.92741
Si 9.40869 -3.78022 4.97902
Si -8.35976 8.51524 -5.07915
Si -10.0543 4.4551 -4.03111
Si -2.64657 4.18911 8.37145
Si 6.73208 -7.41393 -4.45727
Si -1.1627 -5.10966 -8.28503
Si 8.34692 -5.52878 -2.49017
Si 2.26557 6.14821 8.14123
Si 9.59026 -8.30646 -5.44999
Si -1.31834 8.48732 -3.68477
Si 1.30822 9.93108 -4.32857
Si 10.3401 2.01552 -2.6565
Si 3.83565 -7.55116 7.89005
Si 8.87992 -6.5534 7.92253
Si -9.46769 -5.5756 6.43494
Si 1.52364 9.53284 -7.41119
Si -8.67832 6.76875 -2.33979
Si 4.38857 5.86029 3.2618
Si -1.3917 7.67061 -0.764496
Si -6.74044 0.233636 8.41375
Si 2.33359 -9.97245 0.13208
Si -5.20371 -7.65982 -6.49942
Si -4.6149 -7.33083 7.27193
Si 5.71814 -10.4499 4.59463
Si -6.82969 4.09677 -6.76271
Si 7.65681 -6.36025 5.02835
Si -6.14636 -9.04208 5.09525
Si -5.77249 -6.33033 -3.77918
Si 3.88811 -0.0557932 1.09362
Si -0.812472 5.7001 -5.13901
Si -10.0088 8.34833 2.43693
Si -5.54312 5.34855 7.53837
Si 3.23041 -9.40889 3.07455
Si 9.95967 2.85586 6.86983
Si 1.19937 -3.61328 -4.04178
Si -0.390395 -1.36285 4.87281
Si 9.9995 -1.31143 3.20856
Si 4.71894 3.51375 5.25396
Si -5.1387 -8.9074 -2.63555
Si 5.43714 4.58421 0.683612
Si -1.8595 -0.828551 -2.70554
Si -4.32551 0.182826 -1.20396
Si -10.0675 -9.53889 2.50959
Si -1.96996 1.4956 -6.20202
Si 0.801004 -8.14697 7.27458
Si -8.44332 -0.401104 4.86419
Si 5.8613 -2.24807 1.91599
Si 0.776523 10.0049 2.34322
Si 9.36786 -0.669759 -3.46944
Si 0.389126 -5.34829 6.0303
Si 10.3674 -2.89813 -7.62703
Si -6.51645 -1.13884 -4.73302
Si -7.39962 2.51167 4.77018
Si -1.46087 -9.33466 -9.15277
Si -7.69151 -4.12997 -5.08283
Si -9.70739 -0.0286344 7.57914
Si -5.6384 -5.54825 -8.35128
Si 5.89198 5.72133 -3.73913
Si 3.293 6.10662 -2.15642
Si -2.04099 -8.01971 3.20663
Si 4.0353 -4.20329 3.20602
Si 9.71656 9.6084 -5.1393
Si -0.724473 6.72216 8.26233
Si -8.33373 4.49938 7.07287
Si 3.73323 -7.74473 -1.20735
Si 7.54366 1.56141 -6.69636
Si -2.0744 9.38126 7.71479
Si -6.13205 -2.14304 -1.99646
Si 1.54641 -8.83611 -8.91135
Si -6.23154 -10.1916 0.00488208
Si 6.49562 -0.00523117 6.56472
Si -1.00736 -2.18579 -0.0584067
Si 0.992236 0.777415 -7.21316
Si -7.36674 6.67544 2.515
Si 3.26203 0.246753 -9.51058
Si -2.01488 2.9867 2.08937
Si -3.75785 3.94282 -7.34394
Si -3.12352 -4.11472 0.824829
Si 10.2028 -5.85668 -7.32036
Si -1.01421 -9.7714 5.61994
Si -0.487368 2.89385 -0.601065
Si -3.56608 8.68694 -5.68499
Si 5.52025 3.51852 -7.94548
Si 10.1262 0.11886 -6.44441
Si 0.173072 1.48078 3.95497
Si -8.99949 2.05074 -0.353527
Si 9.91435 7.78048 -0.562999
Si 7.93786 -4.27605 -8.09364
Si 3.7978 -5.13685 0.156616
Si 3.27728 2.57277 -5.94676
Si -0.275896 3.07545 6.51868
Si 7.81467 2.76063 -1.28694
Si -4.41765 -9.98292 2.63293
Si 4.42834 -6.86478 4.75726
Si 7.45018 5.92373 -1.1947
Si -1.48399 5.69341 -8.28061
Si -6.69086 1.91296 -2.57061
Si 1.96287 1.39882 8.00233
Si -9.33071 -0.696204 0.823491
Si 2.21285 5.33395 -4.85935
Si 10.1119 -8.07293 -2.3599
Si -2.06592 8.82734 2.13636
Si -4.04983 1.67357 8.98752
Si -9.37255 7.48469 6.79733
Si 8.81596 -2.01807 7.59444
Si 3.31721 1.18037 3.89333
Si -4.63651 4.16772 -2.49916
Si -2.07143 -8.712 8.0592
Si 1.63717 -3.87106 -9.0781
Si -8.36541 -4.56439 -8.16256
Si -9.83868 9.71325 8.75221
Si -3.43822 -1.14701 -5.32897
Si -6.71923 -0.789447 2.47667
Si 8.6082 10.2007 -2.18046
Si -2.19453 -7.6833 -2.44712
Si 5.96657 -3.13932 -6.10498
Si -2.884 5.93153 2.73305
Si -1.91446 3.16949 -3.54112
Si -0.270936 -7.68674 -6.84444
Si 3.88237 0.771358 -3.54514
Si 5.07185 -0.454512 -7.02033
Si 0.514957 5.92 5.65215
Si 6.39632 -3.55536 -0.856152
Si 6.0454 6.53212 -6.87509
Si -2.57161 -5.79327 5.35247
O 6.51741 3.67518 1.41419
O 3.06252 6.67918 3.32844
O -9.61715 -3.786 -1.84567
O -3.06392 0.0737315 -2.09527
O 2.94292 4.80139 8.66004
O 2.28266 -8.07057 7.87356
O -9.68017 -0.930199 3.99325
O 3.18144 -9.52606 1.41248
O 3.30737 -0.230592 4.651
O 0.0255651 -1.10676 6.38705
O -7.67477 1.8401 -1.28074
O 6.73184 4.43494 -4.23968
O -3.54147 -0.431497 2.8911
O 7.97808 4.35117 -1.40901
O 9.05663 9.7264 -3.69097
O -4.0549 0.333443 5.29319
O 0.83817 6.47524 8.77782
O 4.4104 -10.3548 3.67735
O 7.73123 -0.819769 7.15465
O -8.34457 8.56872 6.26746
O -8.50214 7.3905 -6.28602
O -2.00067 -7.41638 -0.813141
O 7.08206 -9.73841 4.01347
O -3.25886 0.310601 9.25605
O 3.35148 -1.02715 -10.4868
O 10.1207 -1.13375 7.93647
O 1.82852 1.74427 3.81868
O -7.47517 2.80909 3.19542
O 4.09426 -6.33684 8.84857
O 9.289 -0.262861 -5.00485
O 2.43402 -8.65815 -0.823566
O 9.22671 -6.77683 -1.97741
O 4.94342 3.43942 -9.453
O 2.34983 5.79101 -8.14766
O -1.50315 7.2582 -8.82437
O -3.4527 -8.73435 2.81384
O -2.30529 -6.65619 4.04574
O -1.74153 5.51465 8.66563
O -9.94856 -8.90777 1.05938
O 0.275909 -2.69423 4.3035
O 8.15171 2.61923 -5.5807
O -9.56811 9.96551 2.46433
O -5.41175 1.1511 -1.93697
O 3.40442 7.33418 8.22403
O 6.22371 -2.29951 -4.73154
O -1.71896 2.19158 -4.77837
O 5.66898 6.72652 3.81529
O 1.75783 -10.1368 3.27379
O -6.26442 5.12645 -5.63736
O 0.0723722 -4.30785 -8.87106
O -1.67337 3.42788 7.26332
O -6.30026 -3.8415 8.90139
O -3.32112 2.03192 2.31175
O -7.19312 -3.13655 -1.29715
O -3.79791 -4.34687 -0.666285
O 3.2278 -3.92484 8.59804
O -4.65568 5.45418 -3.50975
O -1.2923 8.2214 8.4882
O -9.06563 -3.91544 -4.35583
O 8.45934 -7.59104 4.41766
O -5.57195 5.45018 5.93231
O 5.65468 -6.87424 -5.47179
O 9.25798 9.15902 -1.11307
O -6.47013 -1.21218 8.96877
O 5.34165 -3.25896 3.04754
O -7.14463 -0.976276 4.04
O -1.28196 8.4767 -2.09943
O -6.11334 0.27626 6.90117
O 1.88787 6.06114 6.57659
O -9.67096 0.662646 0.093584
O 4.9116 -4.44041 -6.00653
O -8.09932 -0.396667 1.74612
O -5.75365 -6.29198 7.76772
O 4.05266 -7.12377 6.3104
O 6.59874 -2.95827 0.590794
O -0.309275 -0.906076 0.504211
O 2.25253 3.92075 -9.9313
O -8.9036 -0.670269 6.36968
O 0.95167 -10.379 0.839374
O -1.48783 4.6809 -4.11204
O 2.75244 0.524388 6.91801
O -6.93539 -7.80598 4.37066
O 5.01937 -0.652584 6.7218
O 4.73564 -3.39399 -10.7416
O 10.3809 -1.13406 1.70487
O -1.62885 3.07427 0.561061
O -6.55951 -4.94479 1.44182
O -1.12521 2.87244 -2.12013
O -4.30968 -3.86564 1.81365
O -0.193484 9.55247 -4.14908
O -8.91605 -1.91517 -0.0912872
O -3.86109 5.94324 3.95463
O 8.97868 -8.18355 8.03058
O 3.70306 -8.02378 3.81733
O 1.18028 -7.09238 -3.56735
O -4.95367 -0.746934 -4.87846
O -2.25057 -5.4828 0.996268
O -8.0947 -5.03553 7.14953
O -10.2249 -4.47715 5.48436
O 5.42679 7.31595 6.49374
O -2.18709 -6.12568 -9.01089
O 6.23907 3.64706 5.86287
O -5.48127 -9.99869 -3.75396
O 6.81298 2.54947 -7.79199
O 2.80089 -2.08216 6.67784
O -5.28288 -8.45325 6.34407
O 9.02857 -2.91088 6.28877
O 3.9264 -6.72972 -0.0720183
O 8.56472 6.81768 -0.595606
O 9.39587 4.52887 -3.95448
O -0.339588 -4.25867 -4.35127
O 9.18333 -9.34169 -1.98018
O -2.63155 -4.08657 -2.99706
O -6.77327 -1.17769 -3.10891
O 4.44746 0.147981 -8.35621
O -4.37128 7.23981 -5.47598
O 6.06055 -6.67615 4.6677
O -3.1765 3.02909 9.44178
O 8.90908 0.808492 -7.27028
O 10.286 -8.21909 -3.95222
O -5.8898 2.26123 5.28728
O -3.64079 -6.49376 6.30442
O -8.62792 3.01793 0.884241
O 8.2974 2.41909 0.270592
O 6.21692 5.66856 -0.182666
O -3.59885 8.90113 7.62157
O -4.65602 9.79569 -5.85099
O 8.16366 -2.99445 8.73857
O 1.84583 0.466618 -8.57463
O -3.85873 -7.71897 -7.47235
O -2.44698 6.48786 -0.942358
O -5.09222 -6.92936 -5.13117
O -9.62807 0.992083 -5.98442
O 10.4979 7.9414 0.929994
O -0.011437 -6.03694 0.182216
O 5.0161 -0.399218 -3.32714
O -7.36765 6.89168 -1.39337
O -4.64538 -4.66329 -7.40598
O 2.32575 9.1232 -3.32327
O 2.91318 3.92855 -5.15563
O 1.94501 1.92043 -6.50674
O -2.00592 -8.78652 6.43657
O -6.19015 9.39433 7.14685
O 2.1339 -3.14956 -10.3959
O 5.85615 5.00095 -7.34998
O -5.18931 -1.18362 -1.14517
O 7.30928 -3.8703 -6.69032
O -2.75437 0.127442 -6.10252
O -0.274395 -8.16466 -5.34087
O -9.77215 10.0273 10.257
O -2.21625 -4.00823 -7.70785
O 6.75433 0.268002 4.93822
O 4.57155 3.53414 -0.218725
O 0.480182 4.25173 -0.385597
O 6.71477 -4.39046 -9.16484
O 1.45339 -9.56095 -3.83781
O 7.19945 -9.98962 7.88258
O -9.68805 8.19331 8.17359
O 8.73104 -5.73013 -8.01666
O 8.87136 -9.68403 5.87586
O -8.23842 1.20319 4.94253
O -10.0674 2.67319 -1.3498
O -2.16277 -2.86967 0.769079
O -3.64964 -8.33541 -2.77481
O -7.36175 2.66556 -6.24113
O 4.12874 -6.50676 -7.56945
O -5.30753 -9.92886 4.043
O 3.2068 -6.28895 -5.0262
O -8.66436 10.4184 7.87272
O 2.8126 9.85923 -0.834483
O -6.824 7.25392 1.13963
O 1.11844 -2.2155 -3.29925
O 2.36598 0.230302 -3.54943
O -2.74153 8.73549 -4.3163
O -6.19058 -6.74213 -7.39265
O -0.921277 7.10937 -4.41008
O 4.59698 5.4663 -2.89627
O 8.93207 -0.263345 3.71757
O -6.90189 -4.722 -8.90107
O 8.42729 3.18436 7.38226
O -9.74236 3.67153 7.42948
O -2.11873 7.30991 2.69163
O 10.1662 -7.14943 -6.399
O -3.5909 5.87822 1.28056
O 7.77681 -0.831972 -3.02953
O -4.13574 1.79799 7.38408
O -2.52756 -1.41448 -4.06099
O 2.97405 6.47862 -5.74205
O 9.88611 7.93131 3.45727
O 6.14532 -2.45602 -2.02504
O -0.595388 -6.14264 -7.12277
O 4.73386 7.21513 -7.48875
O 6.30546 2.30554 -1.45991
O -4.6212 -6.2814 -9.33972
O 7.54124 -4.53685 -1.45892
O -0.957045 -8.63722 -2.87323
O 8.77269 2.21497 -2.43076
O -2.66326 -8.48776 -9.7724
O -7.38728 -0.0409092 -5.58002
O 7.47185 7.01684 -7.34397
O 2.67102 -7.83235 -9.56468
O 9.85479 3.28277 5.32133
O -0.510648 -8.11959 8.29803
O 9.83082 10.2779 8.00771
O -2.51736 8.65711 -6.9001
O 3.53471 -6.81077 -2.47717
O 4.28301 4.67146 4.28954
O 1.14109 -7.99376 -7.53511
O -3.94447 0.502005 0.338551
O -3.52128 -7.94374 8.3636
O -0.420565 -0.208188 -3.16672
O 7.18883 -6.20856 -3.44678
O -6.90064 4.56509 7.91294
O -4.73687 -5.58227 -2.84143
O 4.00998 0.846258 2.46995
O -8.5247 -6.1302 2.81734
O 0.0679113 -0.0903266 3.92575
O 6.19411 -8.69139 -3.64719
O 8.5521 5.34693 -5.97375
O 1.00726 -2.37809 8.44715
O -7.88348 -4.53717 -6.5894
O 3.82721 3.56921 6.58728
O 6.47134 1.48241 7.13078
O -8.83776 -4.41161 0.584664
O -0.11421 4.98501 -8.83453
O -4.43234 -2.20072 4.68827
O 2.07602 -4.71098 -3.2802
O 8.2402 -4.88828 4.71694
O -0.347449 1.90795 5.39254
O -0.045468 -3.45762 -0.282288
O -9.70288 9.33514 -5.12992
O 4.56317 5.34823 1.78432
O -0.709362 9.59555 2.62698
O -8.97934 -6.69954 5.42462
O 1.88021 -3.0752 -5.47525
O 4.35565 2.14206 4.57878
O 10.3936 -1.43173 -6.9413
O -5.35321 -10.1157 1.31538
O -2.08515 -10.2048 8.49718
O 4.05162 -5.44515 4.2307
O 10.078 -2.15636 -3.33016
O -5.64481 1.24391 9.20071
O -9.18782 -8.55671 3.39473
O 4.84619 -8.76632 8.17304
O 10.2498 -4.30683 -6.7535
O 2.18354 -2.81541 -7.89566
O 5.34255 -9.87626 6.05018
O 1.29475 -0.500299 -1.35969
O 1.96039 -10.3084 -8.36576
O -7.58502 -9.45148 0.0870979
O 2.27283 -4.6777 -0.135047
O 4.53853 -1.50373 1.2305
O -1.25721 -5.25012 6.1412
O 9.54836 -9.92288 -5.7451
O -1.45744 -1.38706 8.54834
O -1.4132 9.75175 6.2601
O 2.51709 5.73286 -0.79698
O 0.978812 2.67046 7.43149
O 3.78669 7.66457 -1.98151
O -8.62691 6.04541 6.89968
O 4.99902 -8.73314 -1.45481
O -1.24974 -7.6828 1.88283
O 2.30531 -0.101531 0.879259
O 2.36542 8.2549 -7.6597
O -5.66641 0.389881 2.20965
O 5.64178 -1.97988 -7.25019
O 9.6031 -2.77801 3.77139
O 10.4297 6.47331 -7.29371
O 7.07241 10.5008 -2.03538
O 1.20543 5.9337 1.66947
O 1.40117 8.46382 2.4178
O -2.85365 4.79977 -8.37018
O -4.76365 7.80358 5.5648
O -7.32269 -9.94424 5.69404
O -9.13527 5.3142 -2.993
O 0.490218 -9.38839 6.28407
O 2.6305 -3.46385 3.42505
O -6.87677 -2.68685 -5.00799
O -3.66073 -2.51028 -6.19402
O -8.31106 7.65658 -3.70761
O 10.3065 -6.06616 7.39421
O -5.81223 -9.05402 -6.10886
O -7.83922 5.14154 2.17583
O 6.30369 0.501884 -6.43199
O 6.90712 6.37083 -2.64422
O -4.87589 7.24569 -0.547737
O 3.6697 -1.09066 -6.32469
O 1.73077 9.77639 -5.87451
O 0.849293 0.284215 8.47454
O -1.84382 10.0657 -9.05758
O -8.04215 4.97878 -7.41214
O -7.98449 3.65714 5.74445
O -1.89692 8.55103 0.500952
O 0.0785094 4.39309 5.69486
O 4.46256 0.859501 -0.178772
O 5.87274 -4.34877 8.99856
O -9.95166 2.8523 -3.84825
O -1.81262 -6.34497 -3.36843
O -9.92022 7.28138 -1.53743
O -8.22717 -6.975 0.4837
O -5.08884 -3.11639 -2.72183
O -4.08363 -2.09843 9.29125
O -2.8092 2.62432 -7.03396
O 4.96662 -4.39703 -0.700952
O -8.35092 0.452217 8.37152
O 0.0231423 6.85807 -0.445473
O 0.736329 6.59345 4.26644
O -7.41857 1.56391 -3.96065
O 2.48219 -5.22954 -8.99856
O 3.40871 1.5798 -10.3038
O 3.13473 2.20318 8.71566
O -6.26785 6.67325 3.67811
O 6.07328 9.09166 4.9077
O -1.24709 -8.64436 -7.68619
O -5.41941 -9.52682 -1.18942
O -9.26194 -3.29217 -8.37326
O 5.55796 3.60417 8.28873
O 9.07653 -3.18504 -8.48447
O 0.113654 -9.13252 -9.61257
O -1.23969 -9.15278 4.15039
O -4.13923 4.63894 7.92092
O 0.824631 -5.09522 4.50807
O -5.37966 3.82194 -7.53072
O 4.33531 2.9905 -7.05278
O -6.86376 -5.288 -4.25136
O -0.514912 6.67408 6.64283
O -9.60472 5.07721 -5.45389
O 3.93576 -4.80702 1.71163
O 7.23579 1.37441 2.48884
O 10.4536 1.28031 7.08855
O -1.54732 -1.78815 -1.51059
O 3.95332 1.83865 -2.35708
O 1.19438 -0.681766 -6.50124
O 0.00869035 9.13017 -7.67953
O -0.7999 2.23526 2.91993
O -3.45047 3.29408 -3.1019
O 1.3074 -4.37772 6.87674
O 4.62683 10.1451 -2.72714
O 10.3771 7.22285 5.86367
O -3.85338 4.76078 -5.93159
O 6.71282 -1.11392 2.69039
O 9.52689 5.4482 4.16588
O -4.42803 4.65795 -1.0209
O 5.93482 6.564 -5.16899
O 0.75319 -4.33345 1.98958
O -6.04769 3.35228 -2.65587
O 7.85483 7.1255 5.24243
O -1.97243 -1.34906 4.8136
O -5.41477 6.95677 7.88947
O -0.604374 1.1845 -7.09482
O 4.67699 -5.94953 -9.99404
O 9.09776 8.22372 -5.82763
O -8.74213 7.44584 2.91517
O -6.15739 -7.66101 -2.92245
O 9.42812 -4.61992 -3.27135
O 8.27966 -5.52943 9.03194
O -6.50724 9.30453 -0.440649
O -6.31575 -2.22352 1.88931
O 4.07396 1.56968 -4.94299
O 8.05684 -7.88728 -5.19564
O -3.56168 -4.51664 4.89159
O -5.67978 -4.06328 6.35593
O -2.1561 4.50589 2.71722
O 2.28899 5.8009 -3.35541
O 0.683397 5.19587 -5.23147
O 9.54687 -9.65338 3.18413
O -9.52206 -8.1494 -1.44558
O -2.75805 -4.70498 -5.34147
O -6.0424 -4.02358 3.75866
O 0.629076 -6.84254 6.38765
O -7.19345 9.67472 -5.26621
O -3.37058 9.7316 2.50613
O -1.2814 5.80855 -6.6555
O 5.14341 9.49969 7.96311
O -9.75532 3.8116 3.13317
O -9.49087 -5.68147 -8.18954
O 10.388 0.422732 -2.82576
O 8.85362 3.29524 2.77096
O 0.457831 1.61039 -0.226727
O 7.89395 -6.39022 6.64886
