582
Atoms. Timestep: 1790001
Si 5.53575 -3.08416 -8.67459
O 5.5701 -3.75526 -10.2526
H 6.0832 -3.24714 -10.8699
Si 3.73702 9.94645 -9.64021
O 3.5936 8.91915 -11.0368
H 3.30226 9.29424 -11.8595
Si 3.84903 -7.9852 -10.1078
O 3.56058 -7.32613 -11.6766
H 4.23936 -6.7709 -12.0419
Si 7.75082 -0.793866 -8.84353
O 7.63033 -0.223486 -10.4817
H 8.27231 0.440626 -10.7038
Si 1.29665 1.58768 -7.13703
Si 5.76079 -4.74765 3.60716
Si 4.47542 -8.40762 -3.75842
Si -4.33784 6.1664 -7.4183
Si 8.21191 -5.013 -2.82451
Si -8.74741 -5.06087 4.56508
Si -2.27989 -7.2752 10.6745
Si -4.39889 -9.18771 9.41767
Si 9.26986 -9.17739 6.62025
Si -7.41397 -2.91271 6.54402
Si 3.83707 1.19796 4.34748
Si -7.35819 0.487753 -7.07495
Si -5.7249 9.13713 8.46778
Si 3.68775 8.50436 -2.27337
Si -3.34361 3.45453 -7.55559
Si -1.10813 -6.52623 -7.35169
Si 10.0542 -5.3438 2.31432
Si 0.178819 -1.26564 -7.68014
Si -10.3765 8.44057 0.0334165
Si -5.578 7.94675 -2.71971
Si -6.78195 5.65223 6.36536
Si 1.57824 -6.94974 5.10764
Si 8.39529 -9.78414 -7.63139
Si 9.37697 -9.7715 -4.91056
Si -6.7285 -5.16362 -7.98977
Si -6.76181 2.11578 3.81041
Si -6.66024 -7.65036 7.74709
Si -1.20216 -8.74821 -5.32702
Si 0.869798 7.60662 -3.14775
Si -3.63489 4.38239 0.619059
Si 9.33306 -4.90891 7.95596
Si 6.34313 -2.52608 1.36482
Si -2.30828 9.16041 5.22754
Si 0.489765 8.03318 5.72781
Si -6.89789 -10.0973 6.0851
Si 4.27569 -0.418144 -4.21983
Si 6.97735 -8.65021 0.106846
Si 2.49082 -3.34285 -7.70278
Si 3.73148 9.13883 0.775343
Si 9.83416 -1.47875 5.09493
Si 7.01056 7.14504 7.98482
Si 9.20475 0.130912 7.6525
Si -6.06877 -3.78795 -2.77538
Si 0.160634 -8.1555 8.99742
Si 9.56305 3.32676 -1.72611
Si -5.14787 -5.05367 6.88344
Si -2.64859 -10.4268 2.44231
Si -1.16312 9.55806 -6.52264
Si 6.6729 -4.30083 9.42782
Si -6.67513 10.3889 -6.32927
Si 5.30698 2.48467 -1.27965
Si 6.43197 7.26067 -2.3781
Si 9.09265 -5.72697 -8.82869
Si 0.799151 -5.73171 2.46187
Si -0.803777 -1.84588 -4.87865
Si 1.10062 -5.25285 -2.99593
Si -6.26643 -8.16333 -4.41404
Si -0.295248 10.0793 -1.97072
Si 8.93828 4.07444 -6.3428
Si -9.70843 -7.34318 0.0388066
Si 6.55608 -1.67408 8.09956
Si 8.20435 8.35426 -4.31756
Si -10.1996 7.60707 -2.96514
Si 7.90969 -0.0100375 1.40895
Si 9.48208 -2.90354 -4.84479
Si -1.06655 -1.58297 -2.06688
Si 5.57609 -5.38902 -4.21917
Si -8.07575 6.67906 3.58336
Si 4.99001 4.53868 -5.02887
Si 7.52376 -7.01923 2.81912
Si -7.78689 2.78434 6.46957
Si -1.38529 -3.4852 0.0208967
Si -2.21926 -5.35726 8.02428
Si 7.43043 -0.471833 -4.28462
Si -9.74474 9.82086 6.89333
Si 6.28302 -8.62124 7.23698
Si 3.39958 -2.42307 0.0388566
Si -2.05042 8.40049 0.216513
Si -3.92502 9.19665 -7.15304
Si 3.36166 0.26888 -1.35532
Si -2.15029 -9.46026 7.17104
Si 7.85934 7.10401 0.486362
Si -3.95717 7.06099 6.78255
Si 3.17307 2.54113 6.96317
Si -5.08707 -9.98606 -2.12533
Si 7.50223 4.61193 -3.60931
Si 7.0363 6.44069 -6.62034
Si -4.18685 0.708986 -7.91084
Si 6.54369 2.26149 3.11873
Si 3.73372 -8.95519 5.7768
Si 6.88278 -5.40209 -6.9596
Si 3.05018 -3.38267 -4.59283
Si -1.2293 -2.91735 6.61883
Si -8.47953 -3.11855 -4.41117
Si -8.19103 -6.00547 -5.35582
Si 0.0322602 5.47939 4.25452
Si 9.03653 -7.95835 -2.29069
Si -2.37969 -8.51785 -2.59391
Si -9.2563 -2.43967 -0.226959
Si -1.04074 1.42606 -1.87272
Si 0.451821 7.07643 -6.14001
Si -8.0202 -2.49079 -7.56787
Si -0.577171 -8.33397 1.80871
Si 6.78 -7.48554 -8.98715
Si 1.84903 9.46847 -7.19862
Si -9.04547 3.02211 -6.39688
Si 1.90436 -6.49143 -8.03109
Si -9.55991 -9.80517 -7.11249
Si 9.96069 -3.01671 -8.03917
Si -9.01943 4.91866 -1.56031
Si -5.21862 -6.64546 1.16304
Si 4.04777 -8.09426 -0.633831
Si -1.4406 -4.99623 -4.60405
Si -7.43117 -5.19309 -0.432095
Si -7.76114 6.7645 0.719232
Si -3.02291 3.5528 -2.28001
Si -9.63306 -7.00336 7.05153
Si 5.23112 9.58273 8.43646
Si -6.99916 5.33047 -5.97034
Si -2.27617 -6.54435 -0.203715
Si -7.76666 7.9816 -4.49442
Si -4.45976 -5.52912 -4.87041
Si -4.79214 7.25008 0.110097
Si 2.63716 -4.25344 4.0466
Si 0.974339 -2.44261 2.00117
Si 4.25239 1.74227 -6.4572
Si -1.19261 5.87187 6.8039
Si -3.46973 -0.659081 -5.39451
Si -1.58057 -7.12885 5.50073
Si 10.0992 3.16888 7.37877
Si 5.20752 4.76695 7.09163
Si 0.756488 2.53402 -4.26545
Si 3.77917 6.08132 1.61566
Si -5.42486 -9.75245 0.976912
Si 8.47378 -9.69039 3.69177
Si 1.91607 -5.63443 8.00245
Si 7.85902 0.966604 -1.56238
Si 7.5126 6.83542 4.89425
Si -7.97205 0.133704 -1.70231
Si -0.372834 4.02165 -6.62425
Si 1.62049 -9.91186 0.267043
Si 7.65279 3.75141 5.51885
Si -3.95017 2.20321 2.87591
Si 0.157378 3.30446 6.39095
Si 7.26133 1.44918 -6.79914
Si -4.91377 -0.409913 1.28895
Si -10.1079 -0.760588 2.2578
Si 1.06248 1.66811 0.0620749
Si -3.44821 -0.92896 5.79012
Si -9.06861 2.54021 -3.27919
Si -6.06483 0.267601 -4.19661
Si 3.86084 -0.436166 6.93351
Si -7.66925 0.847537 1.34109
Si -5.01237 3.2789 -4.75544
Si -1.62679 1.49679 4.76839
Si -3.92598 -2.03807 -1.07727
Si 0.972773 0.549783 3.05698
Si -3.83932 -5.00445 -7.93463
Si -0.781589 5.77479 1.19137
Si -1.79742 -4.60108 3.88098
Si 2.46418 -5.35172 -0.258451
Si 3.43618 9.0918 5.85255
Si -10.0588 -9.99985 1.7477
Si -1.76571 6.45497 -2.37979
Si 4.66363 6.58424 4.49191
Si -3.46208 7.25295 -4.84996
Si 4.25842 9.98569 -5.13169
Si -9.25621 -6.84796 -8.01803
Si 6.0593 9.03054 -7.61809
Si 6.65141 9.76177 1.7205
Si -2.91428 -2.00368 -8.08298
Si 4.66428 -6.63581 9.14915
Si 3.07309 4.22547 -2.9014
Si -8.35005 7.62019 8.43662
Si 7.72251 -3.61698 5.71675
Si -6.39409 -0.0140961 5.93366
Si 3.21462 -9.1911 9.00946
Si 6.30702 4.54056 0.934418
Si 1.66716 4.70442 -0.298835
Si -7.42508 9.92857 3.10693
Si 10.3494 7.36167 5.15113
Si -4.25452 -2.87785 3.24445
Si 10.0933 6.11094 8.15906
Si 1.78179 -7.58101 -5.0966
Si 8.92181 -3.58318 -0.137521
Si -9.98685 -2.27292 7.81273
Si -5.76375 -5.35698 3.7849
Si 1.74199 -2.78589 6.79096
O 3.50046 -1.3027 -1.01787
O 5.4441 -8.35527 0.0636593
O -8.97791 7.82258 0.507177
O -2.48316 -1.90426 6.69836
O 2.83687 -8.86538 -0.0115125
O 0.357926 -7.19059 2.50561
O 6.25412 -4.08912 -7.68851
O 9.07306 3.52889 6.22951
O -0.43133 -5.21076 -3.41199
O 2.5174 9.59723 -8.66547
O -3.69795 -4.97984 7.48882
O -0.449043 1.99606 -0.44893
O 5.00492 -9.72733 -4.54599
O 7.85284 -8.37098 -1.24894
O 5.7179 1.63764 -7.15011
O -4.02069 3.66812 -3.54105
O -2.633 2.24458 3.80429
O 0.612671 2.9966 -7.43284
O 9.31725 -8.98726 -3.50331
O -2.42698 2.06809 -2.19745
O -8.45887 -6.48068 -0.39923
O 0.890837 -6.62445 8.75916
O 9.59084 -3.26703 -6.44259
O 5.11402 9.74763 1.5048
O 2.49935 -3.51473 -6.05163
O 10.3563 -0.79962 8.28192
O -6.65899 0.0431964 -2.71403
O -9.57281 6.69481 4.21067
O 5.16455 5.62198 1.01796
O 10.3439 6.49683 6.53588
O 7.80787 -0.62848 8.19333
O -0.625798 -2.84595 -1.19477
O -7.6125 -7.23168 -4.47968
O 7.89019 -8.61013 7.20615
O -2.31353 -8.50201 5.89221
O -2.2853 10.1136 6.51802
O 0.663288 0.305236 -7.8185
O 8.34482 -1.7616 -4.73894
O -10.393 4.26577 -0.95284
O -6.24006 4.37237 -4.94989
O 10.499 9.84344 0.726298
O 4.27035 -4.47155 -4.41862
O 6.47955 -1.72167 -8.56056
O -7.01629 -5.6103 -6.43676
O 7.3867 9.96102 -7.72045
O -10.0599 -2.58003 -4.29653
O -0.491821 -4.95761 3.02946
O -6.75099 -4.91511 -1.8837
O -2.05818 4.81362 0.992664
O 7.69366 0.209351 -0.172688
O 6.3248 3.65895 2.29256
O 1.51453 2.7132 6.97447
O 1.84903 -3.94159 -3.53238
O 2.99115 -8.39684 -4.47803
O 0.963367 7.07378 -4.62386
O 6.1901 3.87762 -4.12882
O 2.88311 1.70857 -7.30364
O -5.1008 9.47733 -2.58381
O -5.85004 -8.35123 8.99621
O 6.26107 -6.72893 -7.60264
O 7.38196 10.3079 3.09674
O -3.5243 -8.37541 10.4164
O 0.290585 -6.58414 -8.21011
O -8.09167 10.3972 -7.07243
O -10.1748 -9.75906 -5.58203
O -7.08207 4.16403 6.81575
O -9.50515 -2.99657 -8.12433
O 1.34054 -2.24669 -8.13041
O -0.213671 5.4469 2.68586
O -5.12387 -6.95298 -4.58745
O 7.03944 8.48583 -3.28009
O -0.376469 -2.94836 1.21877
O 4.49118 1.18703 -0.683807
O 3.89374 9.26619 -0.857213
O 2.91876 10.106 -6.10885
O -3.52663 0.572522 -6.38564
O 2.23715 7.91416 -2.30664
O 7.50481 5.60639 0.833438
O 8.78821 -6.0575 2.96025
O 3.61355 -6.57797 -0.414479
O 8.85304 9.75088 -4.73511
O 6.28294 8.46864 8.65215
O 2.76371 -7.95817 4.88888
O -6.35017 7.49925 0.719381
O -2.02192 4.81849 -2.39484
O 9.5045 -4.17959 1.25121
O -1.57664 -9.14946 2.7701
O -1.81472 3.64515 -7.18379
O 1.82957 8.82726 6.05986
O 10.0341 -10.3036 7.40535
O 4.39528 3.19218 -5.77868
O -4.28974 -5.09639 -6.362
O -2.43086 7.19434 -1.14024
O 2.25597 4.95547 -1.79092
O 4.82151 7.39461 -2.26789
O 1.57677 -9.0298 9.16986
O 2.33347 -3.52292 5.42455
O -6.49778 10.4634 1.86756
O -1.16904 9.23239 -0.888965
O 7.81011 -6.41036 -9.58147
O -0.203518 6.73508 -2.28857
O -10.3913 8.52567 -1.62475
O -6.22619 9.90099 7.1422
O -3.99907 -9.91001 1.74348
O -2.67249 6.20507 7.35044
O 3.96996 -7.92836 9.72751
O 4.13467 -10.4215 9.25745
O -0.918442 -5.64767 -5.97056
O 6.56111 -4.89802 -2.99241
O 1.73156 3.08861 -0.0135376
O -4.24619 3.31669 -6.18589
O -2.17286 -8.30654 -4.19154
O 7.16965 -10.1902 0.608125
O 2.62992 5.35616 0.822555
O -5.55138 -3.84031 3.316
O 0.488295 4.05026 4.9136
O -0.880338 -7.92566 10.1504
O -8.54527 -4.74775 -4.47533
O -7.66614 8.26862 3.34176
O 2.0364 -6.99886 -6.52473
O 8.62451 -2.55961 4.97817
O -1.33944 -4.02339 7.80285
O -7.15249 7.8336 -2.97251
O -1.34999 -1.67846 -8.16164
O -7.35588 -5.67933 3.94489
O 7.47586 1.3005 2.2869
O -0.200104 3.58823 -5.06658
O -1.05331 2.33521 6.01484
O 3.91004 5.05691 -3.98835
O 6.2748 -3.79176 2.48055
O -9.3317 -6.30746 -6.48239
O -8.13375 4.37478 -6.68188
O -7.03505 8.34979 9.08148
O 5.99647 -10.0947 7.82924
O -9.72978 6.11003 -2.49052
O -2.22439 -6.08974 4.44852
O 4.80523 5.58925 5.7987
O 6.17252 7.05327 4.10518
O -4.42844 -0.700178 -0.278399
O 2.06391 -2.02929 0.882839
O -2.12035 -6.66894 12.0322
O 5.13396 1.59321 3.48366
O 1.17107 1.61581 -5.5209
O -5.05812 -2.90637 -1.77062
O 7.47686 -2.96706 0.2937
O 4.04974 -0.10868 5.37155
O 9.38529 7.48485 0.35955
O 7.73359 -8.26208 3.74938
O -10.3274 -6.41749 1.2127
O -8.4444 -2.75075 7.82321
O 5.29502 9.22728 -6.1629
O 9.09033 -1.7366 -8.51959
O 10.4082 2.80594 -2.95033
O 8.04602 -4.8884 9.0314
O -1.5232 -7.93105 -6.73077
O 3.47937 1.01681 7.53161
O 5.43962 -7.80174 -9.73539
O 3.18232 -3.97902 -0.292951
O -5.30104 -4.48059 -3.98472
O -3.87759 -1.94712 4.53128
O -2.84579 -2.80074 -0.018828
O -9.55492 6.5666 8.88059
O -0.0593959 1.7783 -3.05764
O -7.59345 6.68145 7.31526
O -10.2075 -2.13716 6.20773
O 4.16789 3.28538 -2.04024
O 10.4743 -6.56734 -8.8534
O -7.09251 1.27494 6.73075
O 8.67086 -4.66196 -1.28842
O -2.45601 -5.89145 -7.98504
O 2.76705 -1.64852 7.12851
O -9.2752 8.27903 -4.11071
O -2.45806 -6.18221 9.38854
O 10.0469 4.51641 8.26819
O -5.27096 6.16227 6.45441
O 7.21238 7.2795 6.40581
O -8.11707 5.69047 -0.454093
O 5.27355 -8.52347 5.94085
O -0.00967968 5.60222 -6.59405
O -9.49382 -1.88225 1.22819
O -9.0199 0.330987 2.07261
O 8.98811 -4.11631 -3.92726
O 8.60917 -4.72732 6.51649
O -4.04988 3.2846 1.67409
O -8.54855 -10.2741 6.43019
O 9.04959 1.98975 -1.16577
O 1.87424 -6.1457 6.46372
O 7.2015 8.28306 1.40117
O 6.92654 -1.23585 1.93766
O -7.85374 -0.917764 -7.71226
O -0.291465 1.08136 3.9267
O 6.56703 1.82588 -1.97178
O -3.77939 -6.40659 0.28048
O -5.95706 -9.04661 -3.16425
O 3.63337 7.61569 1.2412
O 6.8634 6.01873 -3.23242
O -1.37251 -3.37401 -4.85929
O -3.37583 -1.83997 -6.52659
O -5.25106 -5.41782 -8.58036
O 5.99787 5.88077 8.01843
O -8.79651 1.1101 -2.63808
O 2.41573 0.921979 3.65075
O 0.942042 -10.3399 -1.13783
O 6.53083 -5.33095 -5.4707
O 4.20083 0.557391 -5.43155
O -8.27769 -7.51052 7.75771
O 4.80715 -2.25819 0.83365
O 3.55642 -1.86714 -4.36839
O 0.934541 6.81742 4.64748
O 1.93758 3.33816 -3.63268
O -5.86137 5.91574 -7.02001
O 8.89479 7.48845 4.49513
O -1.09501 -0.142184 -1.4407
O 7.78792 -8.6703 -8.62312
O -7.04881 0.147316 -5.47701
O 9.95856 -10.2421 -7.83056
O -3.73596 8.39036 0.398569
O 10.4308 3.59135 -6.53522
O 6.04669 3.50152 -0.254295
O -0.823752 8.05317 -6.28363
O -4.45625 -1.84248 2.10164
O -2.24809 7.04314 -3.83747
O 9.52296 -4.19547 -9.04834
O 0.10179 -1.6156 -6.09429
O -5.20378 2.5244 3.84661
O 1.79326 -5.71539 3.9223
O 8.37649 -5.65835 -7.40309
O 1.64161 7.8565 -6.88306
O -2.69188 -1.76176 -2.18469
O -0.214704 -1.57277 -3.41567
O 1.80153 -3.50911 2.87358
O -6.62944 0.582291 4.4418
O -0.183898 7.13001 6.89688
O -5.82323 0.805558 -7.70741
O 9.36827 7.48909 -3.60057
O -8.08537 -2.71494 -5.91161
O -6.90135 10.4253 4.542
O 3.24019 -8.89363 7.35238
O -2.99074 -5.39517 -4.31594
O -6.47755 -0.255244 1.36011
O 1.65356 -6.42902 -3.94601
O 10.0545 -3.45566 8.2917
O -4.20456 0.764873 2.14282
O -7.73286 2.74982 4.80817
O -9.11679 -8.43123 -7.78826
O -5.07672 -5.41949 5.29385
O 7.02967 7.20091 -0.909302
O 5.84176 -0.816833 -4.12556
O 6.41514 3.8006 6.58728
O -5.69983 -8.17673 0.951434
O -9.88499 -4.83313 3.41201
O 0.246334 5.29899 0.111815
O -6.06303 -6.19423 7.56596
O -6.33124 -5.60994 0.579457
O -5.00352 10.282 9.41079
O -9.51772 -8.77742 0.775412
O -7.92095 -6.05845 -8.58183
O -3.61219 -9.26944 -2.12293
O -5.45567 -10.1317 -0.540989
O -4.84306 -0.339104 6.28231
O 3.59853 -9.55781 -10.0855
O -3.6448 2.10415 -8.43073
O 1.01742 1.05406 1.53322
O 1.79037 -5.47327 1.21277
O 5.05229 9.55899 -8.82069
O -7.77148 0.981841 -0.319912
O -7.73386 6.55372 -5.19899
O 1.93104 0.769704 -0.957299
O -5.64565 1.83988 -4.39662
O 4.15901 -4.54846 3.76872
O 9.43729 -0.360896 1.79928
O -2.99625 -3.86564 3.15745
O 5.70974 -7.39787 8.1357
O -1.28708 5.65167 5.19242
O 9.49373 1.72265 7.96271
O 3.92434 7.91164 4.94832
O 0.370978 -8.38351 -5.06518
O -4.33745 5.83201 0.733224
O -6.40342 -8.65983 6.46253
O 5.49306 -5.29365 9.64329
O 6.22663 -6.19507 3.20399
O 0.40672 -9.25027 1.05333
O 4.24612 -8.50435 -2.15556
O 8.02928 0.00522011 -2.83386
O -1.92247 9.5896 1.45411
O -1.12963 -9.58637 -2.31459
O 5.81892 5.592 -5.92726
O 7.90025 0.441601 -7.86933
O -6.05101 -3.70111 6.86465
O -2.82268 9.77937 3.87887
O 3.80956 9.25158 -3.7576
O 2.18288 -4.88 -8.14669
O -1.43449 -10.3402 -5.4073
O -3.61906 -0.62655 -8.66449
O 2.26853 9.83139 1.01204
O 6.44065 -4.22224 5.0188
O 0.194164 9.08567 -3.2132
O 8.30148 4.2049 -2.32771
O 9.24024 -0.257601 6.05978
O -1.62438 -6.34822 6.92332
O 0.0421676 -7.36771 5.22643
O -2.42065 9.6648 -7.63428
O 3.43028 -5.91784 8.46521
O 8.9753 -9.91306 5.1643
O -3.45926 -3.51593 -8.38074
O 9.77693 -9.60979 2.71247
O -8.35743 1.72276 -7.11713
O 8.0116 2.81304 -6.75521
O 10.4098 -6.06016 7.98801
O -9.34412 2.83363 6.88759
O -3.29197 7.926 5.6201
O -6.96812 -3.55179 -8.15981
O 8.43197 -9.17205 -6.0908
O -4.57309 8.0595 7.92886
O -2.4525 0.189362 5.21135
O -9.23527 -6.04162 5.75352
O 3.97197 5.94817 3.19349
O 1.39068 -5.49477 -1.44811
O -8.86674 10.4576 2.69501
O 0.341551 10.0894 -7.07549
O -3.74017 3.86152 -0.899052
O 4.25832 9.04968 7.23916
O 3.96958 -2.86929 -8.19933
O -2.27008 -7.28983 -1.60903
O 7.72255 5.22674 4.8828
O -8.62381 -1.29442 -1.19515
O -7.93996 6.01228 2.15485
O -0.73634 -8.98304 7.88923
O -7.10884 2.08827 2.19464
O -8.19526 -3.75983 5.38741
O -4.75453 -0.56828 -4.48885
O 8.59536 4.39023 -4.81196
O -5.13252 -6.31413 2.71307
O -1.35353 -3.729 5.19477
O 3.62154 0.272292 -2.93404
O -4.15171 7.69942 -7.8969
O -4.79719 7.25605 -3.98011
O 1.74916 -3.99306 7.89217
O 3.95032 3.85177 7.52945
O -6.45306 -9.17662 -5.66096
O 7.0652 -2.80536 7.00825
O -3.5511 6.11479 -5.98566
O 6.31105 -2.82525 9.32804
O -7.24255 5.94755 4.78368
O -5.33892 9.96192 -7.12708
O 5.14099 -6.93543 -3.94014
O 0.79797 -1.06479 2.92564
O 7.68725 7.50126 -5.55249
O -10.1804 8.82091 5.71819
O -3.36937 -9.28183 8.17558
O -9.16128 8.87982 8.05681
O 7.5404 -7.66923 1.29055
O -7.28768 -2.89101 -3.38989
O 2.85295 -7.27747 -9.0402
O -1.55331 -7.43406 0.851197
O 7.37152 0.674576 -5.39104
O 0.22463 -2.33136 6.55828
O -5.1952 7.17381 -1.42338
O 7.25106 2.65393 4.44451
O 8.53765 6.73372 8.46124
O -1.56731 -5.06557 -0.0904669
O -2.00091 -0.785088 -4.74786
O 8.26938 5.36731 -7.00475
O 3.67727 -10.4558 5.27052
O 10.2301 -7.6329 -1.17137
O -8.29745 -3.79118 -0.13755
O 8.67056 -6.5255 -2.9238
O -8.38085 3.81606 -2.49726
O -0.768027 8.77072 5.10782
O -6.91233 9.14474 -5.24577
O 5.24673 -0.958355 7.5692
O -7.15616 -1.36831 6.15644
O -8.84777 2.57623 -4.85122
O 3.5929 2.33317 5.41573
O -1.18467 7.27673 1.04878
O -3.81694 4.87276 -8.16131
O 10.2186 -2.73213 -0.707307
O -3.48669 8.61826 -5.70783
O -10.4388 -1.17653 3.74503
O 6.44517 7.48428 -7.70355
O -0.416555 4.51603 7.23423
O 10.3437 -8.03468 6.46505
