591
Atoms. Timestep: 1790001
Si -6.17304 7.43404 10.0149
O -6.34925 7.62017 11.7135
H -5.90173 8.38027 12.0663
Si 2.62497 8.61717 -9.79555
O 2.09124 9.25797 -11.2779
H 2.78654 9.6694 -11.7777
Si 7.97262 -6.47931 9.21826
O 9.12844 -7.43716 10.0832
H 9.24246 -8.34217 9.81781
Si -10.5011 9.77355 7.69004
O 9.27979 10.1089 8.87389
H 8.61691 9.42912 8.90509
Si 0.189767 0.724386 -9.19615
O -0.236148 -0.0142361 -10.6807
H 0.428848 -0.581091 -11.0535
Si -7.64874 10.0832 9.05893
O -8.06802 -10.1547 10.5209
H -8.34763 -9.25108 10.4328
Si 8.68829 -3.35006 9.05622
O 9.44202 -2.76231 10.4641
H 9.98916 -3.38455 10.9288
Si -7.08857 4.42668 9.79327
O -7.40332 4.03173 11.4245
H -6.94325 3.25003 11.707
Si -0.525951 3.81456 -9.9336
O -0.658806 3.88072 -11.6299
H -1.5614 3.86756 -11.926
Si 1.35498 10.2928 -7.42639
O 0.0254646 -9.88748 -8.05951
H -0.0845741 -9.98862 -8.99768
Si 3.32062 2.02453 -5.04025
Si -5.59187 -9.15017 7.34094
Si 6.312 0.9672 -5.4412
Si 4.14682 -9.54584 7.63013
Si 6.72188 3.65574 6.31104
Si -8.48921 2.1102 -7.99501
Si -7.59072 -6.95092 -8.0291
Si -4.53618 -9.42105 -7.27713
Si 0.142892 -3.84496 7.99563
Si 0.446748 -8.30641 1.12903
Si 5.59322 9.72161 -6.05538
Si -5.32947 -4.75187 -1.15623
Si 5.2102 -3.28879 -5.83776
Si -1.00625 0.492294 -6.41376
Si 2.83421 -8.13023 5.01053
Si -8.87251 2.92091 7.59823
Si -3.32437 -3.51461 -3.16373
Si 3.6455 1.2971 2.80931
Si -4.69346 -6.36182 -7.29159
Si 5.63565 -6.3296 -3.1637
Si 10.1105 7.30956 5.6884
Si -8.64451 3.11784 2.69532
Si 1.16889 -2.60692 5.25457
Si 9.64775 -2.29769 -7.71813
Si -2.52228 3.21521 3.41224
Si -0.999294 8.54694 8.3828
Si -8.28644 9.5152 -1.66658
Si 5.49528 2.56513 -0.972606
Si 0.97805 0.754666 1.67446
Si -8.8916 -3.67235 4.56529
Si 0.19123 4.28108 4.26603
Si -5.86141 5.80379 4.47634
Si -6.70268 2.9485 5.2412
Si -3.35403 9.05472 -6.58378
Si 6.71387 7.77737 1.47684
Si -7.64417 7.8949 -8.37243
Si -10.1306 0.543872 2.22458
Si 2.32471 -5.86157 8.52469
Si 2.74507 3.3114 -2.32966
Si 0.128144 2.93039 -0.469629
Si -8.96296 5.59695 -5.15581
Si 0.716258 8.38233 -0.267632
Si -4.5458 -7.73193 -1.74352
Si 3.90008 -4.47632 -1.64957
Si 3.39959 -2.04226 -3.49476
Si -7.57539 -9.99464 -8.26737
Si 6.17046 9.31051 -1.09434
Si -9.27068 5.25715 -8.26152
Si -1.00821 -6.75426 3.33587
Si 8.28582 -7.62302 6.22538
Si -3.17128 3.95088 -8.08381
Si -4.03782 -0.626782 -6.23834
Si 7.95532 4.41707 -1.40487
Si 0.856594 -4.55617 -4.36075
Si 8.56557 -5.42985 -0.672986
Si 7.82333 -0.938578 -9.78883
Si 2.61433 8.00009 5.94202
Si 5.03396 -6.77921 8.77844
Si -8.1968 7.8129 3.90088
Si -9.48346 -10.2622 0.638881
Si 6.90081 -8.28191 1.6711
Si -5.51679 2.05835 -7.31281
Si 3.02447 0.773554 -7.79582
Si 7.96952 -0.476991 -3.12629
Si 4.8814 5.99619 5.6535
Si -1.64694 -0.980031 -2.19308
Si 2.19534 -3.90716 2.46435
Si -4.25597 -1.93822 5.48939
Si -3.06196 10.1309 6.53275
Si 3.44138 -9.03328 -5.79222
Si 8.0425 -0.876409 2.00568
Si 10.1174 3.47508 -3.65919
Si -4.57585 -6.25297 7.09474
Si 0.636064 -8.14252 7.00819
Si 10.3139 -2.31249 6.55738
Si -0.715606 5.77342 -0.349419
Si -9.59344 -4.87317 -7.32542
Si 0.461439 10.031 2.28501
Si 8.34777 -5.85099 -3.75964
Si 2.6384 -7.35831 -0.974649
Si 8.28126 -3.05352 -4.88134
Si -1.52272 -6.15511 6.42493
Si -8.643 8.58209 -5.36265
Si 9.42039 -9.6283 2.47282
Si -10.1629 -3.49502 -0.966297
Si -6.53066 -9.33346 -2.86969
Si -3.55641 7.2484 0.431137
Si 6.56471 1.70322 1.77971
Si 9.64001 4.24559 6.13556
Si 5.4821 -1.04379 -7.76802
Si -5.79429 7.62875 -1.72465
Si -8.42264 -0.0478123 -5.53194
Si 8.80025 5.65929 -7.89388
Si -4.48511 2.99789 -3.07175
Si 6.33853 -10.126 5.799
Si 5.79575 0.666417 6.62337
Si 3.63868 3.61126 -7.55545
Si -4.85459 6.47242 -7.58022
Si -3.97527 2.50185 6.13641
Si -6.92627 2.89583 0.0741231
Si -3.55109 1.03183 -1.01803
Si -3.83043 -7.77865 -4.81176
Si -3.77799 9.87195 1.72123
Si 1.42304 -8.86261 -3.38658
Si 4.08661 -5.48742 4.19541
Si -5.89528 -4.01406 1.78223
Si -3.3422 0.861156 8.66427
Si 5.91295 5.6491 -7.9913
Si -6.04135 4.48404 -5.28432
Si 1.58208 5.84776 -8.80951
Si -2.19036 -9.24096 -0.413843
Si -0.842096 -7.01743 -4.25401
Si -10.4119 -10.4193 -6.68431
Si -0.880904 -5.19182 -1.95393
Si -5.68431 0.332254 -4.08121
Si 8.51444 2.8582 -6.31888
Si 4.44671 -4.4332 6.92503
Si -4.05751 3.80099 8.89479
Si -10.0956 0.651126 -2.9882
Si 0.779164 6.25624 -5.97609
Si 10.2786 -7.45018 -5.56356
Si 3.20204 4.37545 3.39438
Si -7.23239 -8.5874 4.61438
Si -10.3582 -7.33362 0.826018
Si -4.83522 4.63096 1.6622
Si -0.478764 10.0596 -2.4122
Si -8.56332 -0.0399361 7.19343
Si -10.3293 -9.22752 5.29222
Si -4.30021 -3.42416 8.03273
Si -7.84608 -7.1822 -4.70456
Si -0.971892 3.61066 -5.73363
Si -6.8728 10.2956 2.42087
Si -0.909649 -1.55757 0.836663
Si 5.8272 6.93166 -5.01191
Si -3.29481 6.62184 8.87691
Si -1.32395 -0.970038 5.52568
Si -9.11927 5.96967 1.68208
Si 7.97931 3.72971 3.60133
Si -5.45788 -1.07869 2.75569
Si -1.51872 3.93891 -2.67859
Si 7.21546 -5.90501 3.67617
Si 3.60332 -5.95429 -5.40775
Si -1.72493 -1.70271 8.50976
Si 9.92996 0.72559 -8.29311
Si -7.86603 -4.47126 -2.93574
Si 1.53879 10.0621 8.12297
Si -7.81069 5.3188 -1.25122
Si 5.65277 -8.60723 -1.04271
Si -5.68581 -0.931378 8.10672
Si 0.493172 1.25475 4.8412
Si -8.09272 -0.570515 4.2078
Si -8.94503 -0.693263 -0.457262
Si 7.08411 8.02514 4.60975
Si -0.279445 6.94679 5.71408
Si -2.94366 0.585593 1.81679
Si 3.11373 8.9108 3.162
Si 4.61214 -9.55066 3.10539
Si 3.05644 6.08256 -3.79461
Si 7.98544 7.24958 -2.82341
Si 5.38592 8.44577 -8.82378
Si -6.22082 -0.0995153 -0.962473
Si 7.29463 -3.75842 1.64374
Si -5.62666 9.1394 -4.28637
Si 4.49128 -2.62735 0.821764
Si -0.49969 8.8709 -5.35948
Si 2.97845 -0.219518 5.30453
Si -9.74888 7.15518 -3.01672
Si -9.04484 -4.7482 1.69241
Si 3.38407 7.86335 -1.24046
Si 0.540957 -1.43293 -4.41933
Si 7.67295 -1.17437 5.1195
Si 8.80434 5.6686 1.31212
Si -6.38795 -5.50804 4.53661
Si -3.34811 7.24012 5.76184
Si 3.96011 6.38933 1.2652
Si -0.531007 -4.67439 1.13716
Si -2.06231 -9.65117 3.829
Si -4.48799 -3.58607 -6.17969
Si 6.23174 -2.10254 7.61021
Si -7.59292 -3.08865 -5.55845
Si 5.46756 -0.580531 -1.40898
Si 8.1665 8.76397 -7.49738
O -3.06684 1.40857 0.430337
O 2.0894 6.37076 -5.05028
O 7.05178 2.23522 -6.17934
O -9.98538 4.67485 -4.28033
O 8.05577 7.02478 1.08555
O -7.61843 9.4558 -8.87787
O -5.39542 -2.45317 8.60094
O -6.79817 -4.61895 -1.73251
O -5.68896 5.28852 2.92282
O 8.73763 4.36366 -6.82679
O -0.990133 -4.90064 7.30729
O 4.10001 5.16635 4.48556
O -0.205064 -1.90019 4.84204
O -10.1509 3.55785 6.89589
O 2.90346 7.22627 -2.65719
O 3.318 7.52526 2.22534
O 3.31476 -8.86066 3.68846
O 3.42782 -6.62777 4.96409
O -0.289075 7.27667 -5.43303
O -4.494 -5.01315 8.19437
O 7.54121 -1.13503 3.53893
O -6.98388 6.0506 9.64817
O 0.724396 0.960248 3.22516
O 4.15397 -2.48202 -4.92058
O 8.18338 5.00873 2.6439
O 7.35077 5.46214 -8.53818
O -4.83961 -6.21144 -1.42733
O 5.39144 1.01523 -1.31096
O -5.88915 -8.66196 -1.56323
O 9.16025 -6.97468 -4.5422
O -6.67769 -9.91549 8.32956
O -6.1525 -0.0259432 -2.56495
O 0.136412 9.03279 1.13174
O 4.59236 -4.7949 -5.89173
O -1.98495 7.60345 9.24337
O 4.15712 -3.67706 -0.319617
O 3.37183 -8.96785 6.29956
O -2.45342 0.344443 -1.93747
O 7.17577 0.539384 -4.15279
O -3.30889 -8.25298 -0.931991
O -2.26681 -0.279674 9.08553
O 4.10693 3.17477 -1.53238
O 8.54135 -2.10027 -8.9277
O 5.5602 -9.73478 4.38524
O -8.66152 7.29287 2.43229
O 7.24447 7.00058 -4.2312
O -6.69322 -9.35501 3.26375
O -1.00454 -8.48736 0.398311
O 10.3793 5.84671 1.34482
O 2.12515 9.07352 7.00031
O -5.63817 -4.78344 3.27619
O -4.75257 0.14385 8.83006
O -9.74441 1.41048 -8.82508
O -6.41692 -9.00772 5.94729
O 3.65526 4.96114 1.93345
O 5.48655 6.74162 1.34308
O -4.37044 2.1837 -1.64934
O 9.02884 -2.63296 -6.26829
O 7.61654 -4.56587 2.96433
O -6.9333 -8.32293 -3.99874
O 9.50395 9.66957 -7.40933
O -4.73531 -6.68302 -5.67316
O -7.05859 6.88054 4.60036
O -8.26695 5.6702 0.312213
O -4.47072 6.46681 4.95137
O 3.43276 2.77513 3.40789
O -7.40912 9.19567 3.48507
O -3.72281 -3.69328 -4.70413
O 4.03464 -0.414819 -7.96366
O -4.01231 -2.12877 -6.77858
O -4.22193 -3.29664 6.29527
O -6.83226 -7.05897 4.23309
O 2.61375 1.02446 1.55964
O -7.02903 0.517166 -4.86753
O -8.11033 -10.3955 1.41536
O 5.75909 4.91867 6.55844
O 2.57785 4.70668 -8.23806
O 10.2524 -0.787517 -7.63448
O -4.35861 5.88441 0.857283
O -3.38367 1.29025 7.04212
O -2.32105 4.01791 -6.6482
O 1.17799 6.62059 -7.49192
O 7.76868 -6.43584 5.11314
O 7.37863 -2.65379 8.57234
O -7.70247 2.76091 3.94676
O -3.00293 3.09785 4.99821
O 8.3564 -4.96696 9.33167
O -0.780456 -7.46167 6.97954
O 10.2995 8.31438 6.98654
O -3.4328 6.68325 7.27396
O 5.28612 -5.03144 -2.28384
O 5.2518 -5.7124 7.51714
O 7.07189 0.216595 5.62871
O 3.64056 -6.30628 9.37857
O -1.9181 -8.05968 3.65421
O 6.9293 9.44698 5.45334
O 4.99382 -3.09727 7.62059
O 0.482765 -0.68323 1.15355
O -7.91113 2.82626 1.31311
O 3.01044 -4.9001 7.43283
O -5.67834 -2.39397 1.89952
O -4.20644 2.7189 -7.99739
O 3.02172 -10.3039 8.51417
O 5.23682 6.86892 -8.71519
O -8.71472 1.20297 -6.6131
O 4.86123 -9.85598 -5.70419
O -0.276894 8.8891 -1.42174
O 3.39243 3.37475 -5.9629
O 5.15211 1.26238 2.49536
O -0.752093 0.487866 -7.98451
O -10.0148 -3.36069 5.60334
O 3.53091 2.15022 -8.20419
O -5.32687 2.10864 5.367
O -3.69648 10.2872 -7.61695
O -6.58266 1.33059 -0.274779
O -3.37346 2.35077 9.31338
O 1.86763 -7.8278 -2.30938
O 6.70832 -3.31775 -5.22453
O -2.77078 -1.38826 5.09615
O -3.08032 -6.41267 6.49857
O 5.59737 -5.96447 3.80847
O 3.43781 -7.47502 -6.10243
O -4.06001 5.29115 -8.27243
O -7.59737 2.90489 6.57421
O 0.437435 -4.50246 -2.72166
O -1.16446 4.08984 3.3835
O -0.24558 -5.67446 -4.79271
O -9.34231 -6.27265 1.43932
O -0.666961 2.01941 -5.94328
O 5.9118 2.62841 0.570985
O -0.988679 -5.98975 4.79982
O -6.08553 -3.43106 -5.99138
O -0.934579 3.77486 -4.14918
O 8.19657 3.91949 6.84213
O 8.15995 -2.40876 1.4004
O -7.67192 -7.15064 -6.35919
O 7.59296 2.47807 2.67211
O -5.15203 -7.59949 7.72173
O -5.68266 3.6813 0.669517
O -10.4344 -10.1812 6.51434
O 9.28108 3.71331 4.57518
O 4.42365 -1.19591 -2.5135
O 9.90086 -9.74301 3.96048
O 9.10989 -1.64931 5.61411
O 6.06324 2.22914 6.71948
O 4.9338 9.17489 -7.41855
O 5.98969 -10.1628 -1.3134
O 8.64345 7.60703 4.89432
O 4.41952 -4.31126 5.27731
O 9.36188 0.318128 -2.81179
O -1.55662 -10.0698 -1.66761
O 1.20668 7.44345 5.3626
O -7.16742 9.10567 -4.85043
O -9.39574 -4.18387 3.19056
O -3.22696 5.06879 9.32395
O 1.15183 -4.83444 8.86858
O 2.21833 8.6612 -0.557113
O -10.3967 -3.61002 -7.92101
O 4.33553 0.336968 5.97894
O -7.53021 5.02606 -4.98692
O -0.592918 9.51835 -3.88103
O -7.95584 0.076846 5.68532
O -8.8011 -8.89128 4.83572
O -4.50892 8.99406 -5.39656
O 10.1422 5.42909 -8.65849
O -1.0376 -6.66149 -2.60147
O 1.63361 -3.48137 3.96795
O 8.63431 7.20662 -7.38964
O 10.0225 -8.89541 -6.34853
O -8.61536 -4.10438 -6.25154
O -5.43889 9.91485 1.78977
O 3.32008 -5.05721 2.8834
O 7.18352 9.46622 -6.39796
O 9.35896 1.74668 -7.16558
O -1.81693 7.20855 5.12735
O 6.02288 6.97114 5.0651
O -9.26638 0.284323 -1.67562
O 0.17196 -8.23305 -4.20011
O 6.67552 -8.11204 0.0675399
O 6.8725 3.79353 4.6967
O 5.36506 8.48225 -5.06702
O -6.8754 1.93132 -8.18523
O -4.14251 -7.81588 -7.76371
O -6.09785 -6.32405 -8.04317
O 4.77937 -8.22279 8.21663
O -0.114157 5.39695 5.37512
O 5.78584 -3.14356 1.67422
O 6.32606 -0.84877 -9.06866
O 4.89441 -1.34278 -0.0583268
O -9.05537 9.82355 8.38158
O 9.40033 -4.10177 -1.10802
O -9.97204 2.25852 -3.19605
O 9.19083 3.95747 -2.39278
O -1.91942 9.08475 -5.97728
O -4.15509 -4.84184 -7.18043
O 2.09941 -1.3308 -3.85157
O 1.01341 -9.73215 1.466
O 1.49297 3.09789 -1.34293
O 7.58284 5.96152 -1.89829
O -4.32831 -0.075454 2.25747
O 1.84015 9.48975 -8.70757
O 1.65615 -7.13613 7.83979
O 3.09058 -2.748 1.75981
O -7.70991 -5.7731 -3.9076
O 5.07119 4.33755 -7.76802
O -7.20657 -0.474035 7.9735
O 6.05038 6.33241 -6.50301
O 9.69547 -3.05726 7.83569
O 2.62854 -9.25196 -4.41038
O 2.71436 4.69695 -3.06588
O 2.70806 2.34141 -3.60393
O -5.39596 5.67626 -6.23969
O -9.72122 -3.93571 0.519447
O -6.46253 6.24398 -1.4858
O -0.932683 -3.05966 1.20481
O 0.372375 9.2133 8.88076
O 0.740345 9.48742 -6.21878
O -1.23215 -1.47482 -0.725037
O -0.45266 7.57753 7.20767
O -0.831842 0.546072 5.35096
O 1.6346 0.50386 -8.58965
O -9.61085 7.5564 4.6947
O -7.83982 -10.2013 -2.43821
O -9.53654 -0.00629353 -4.3588
O 5.41826 -8.69683 2.04394
O -9.17977 7.09623 -4.59425
O 2.22948 -5.16009 -4.99371
O 8.38329 4.63342 0.0804691
O -2.23212 -7.52808 -4.87395
O 4.72117 8.60287 -1.32348
O 0.273761 1.81426 0.666754
O -0.412913 -1.04608 -3.16771
O -7.47406 -4.42631 1.64689
O -4.53575 -3.70849 -2.14967
O 5.94849 -0.488584 7.78422
O -3.73503 8.80508 5.88678
O -2.06781 6.51294 0.112878
O -3.64026 3.87738 2.45212
O 9.19989 2.97634 -4.86551
O -6.08456 -9.8495 -7.61031
O 7.30263 8.50637 -2.04596
O -4.25407 -7.86214 -3.26544
O 3.09009 -5.81048 -1.19809
O -4.80165 1.67655 -4.02909
O -7.99396 -1.56671 -5.86992
O 7.81111 -1.04326 -11.2982
O 3.58576 6.64827 -0.225837
O -1.40843 -5.57391 2.21196
O -6.94437 8.70542 -1.2227
O -1.99201 3.92511 -9.27588
O 9.92491 -8.09082 2.0755
O -3.06119 3.74778 -3.0369
O 3.3144 0.00262347 3.73201
O 2.68698 1.04579 -6.20949
O 8.33615 -1.82004 -3.86141
O -3.30416 -10.4151 3.04332
O 0.466844 2.84524 5.02243
O -4.95312 0.589487 -6.83036
O -2.16039 -4.47528 -2.58846
O 9.9452 5.79317 6.16038
O 6.96868 -0.821595 -1.88572
O 6.73145 -2.17182 6.00711
O -5.5645 7.85494 -3.28395
O -6.11645 7.23316 -8.21236
O 8.17203 -7.01797 7.689
O 2.33682 7.06052 -9.64152
O -4.24154 -9.98848 7.10506
O -2.89686 -2.745 8.40942
O 0.999159 -4.59747 1.7035
O 9.42237 -0.102983 2.26807
O 5.28445 -2.49656 -7.17764
O 4.22393 8.98569 -9.83918
O 8.83982 -4.38697 -4.27983
O 1.63435 9.44123 3.13459
O -8.22843 8.125 -6.8471
O -5.04293 -1.70359 4.15829
O 4.85809 1.46041 -4.99132
O 7.22518 0.286833 1.25066
O -8.17334 3.69145 8.83148
O -7.43308 3.78591 -1.22363
O 9.75097 -7.99042 5.77884
O -1.98461 9.64148 7.64969
O 5.77773 -7.62558 -2.26932
O -9.33745 5.68241 -6.67051
O 6.84061 -6.10429 -4.1372
O -2.36927 1.71516 2.86696
O 0.116711 4.72598 -6.06661
O 1.61389 4.60012 3.55079
O 0.229899 -7.45782 2.48731
O -7.70646 -4.65129 4.92469
O -8.91082 5.98378 -2.25925
O 2.50022 -9.79192 -6.87576
O -8.14129 -2.18674 4.43596
O -7.37075 -1.04402 -0.482672
O -0.475311 -2.70126 8.95736
O -2.96062 -10.3453 0.552749
O -0.249606 4.35624 0.219965
O 2.41198 -1.66359 5.59921
O 1.72653 0.71383 5.64927
O -8.47219 6.57561 -8.86705
O -4.23093 -9.07455 -5.6832
O 9.52613 -6.56056 -0.00444249
O 8.11771 -5.97448 -2.1373
O 7.87784 -9.51301 2.05384
O -9.099 1.36142 7.71637
O -6.19294 4.50374 5.30991
O -6.88851 -0.399282 3.15421
O -8.98136 4.68825 2.70178
O -9.38335 -7.65407 -4.68704
O 0.913953 -10.1175 -2.53737
O 4.05557 -8.22373 -0.692683
O -6.83035 8.73717 9.37612
O -9.67746 -1.16053 7.06696
O -9.34913 9.74741 -0.56897
O -8.69868 3.73889 -8.12109
O -5.18353 -4.48198 0.414857
O -9.18846 -4.15865 -2.09159
O -9.83116 -1.91031 -0.911467
O -3.80561 7.66209 -7.28885
O -5.49898 -5.81509 5.81492
O 3.62837 6.81759 6.34192
O -10.3833 -6.09962 -6.54454
O 6.77672 3.37303 -1.60298
O -2.64173 -2.04705 -2.87787
O 0.113099 2.40196 -9.45637
O 1.53618 -7.60095 0.177997
O -1.02166 2.77414 -1.60317
O 0.383599 5.07439 -9.53887
O -8.65264 -5.79857 -8.30442
O 4.56105 6.2526 -4.28166
O 5.39372 -10.3521 7.04358
O -5.77229 3.21597 -6.2017
O 1.23398 -8.06705 5.49601
O 6.43574 8.99507 0.46558
O -5.61265 10.4185 -3.38138
O 0.848044 -3.27767 6.67726
O 7.0429 8.73801 -8.72392
O 7.33937 -8.90971 6.04419
O -7.74073 -8.41554 -8.73459
O -9.62839 -8.65861 0.200956
O -4.99602 -1.11271 6.67022
O 7.40617 -7.04221 2.54284
O 6.45129 -6.72285 9.55838
O -5.56461 3.87013 9.42354
O -7.68207 -3.21703 -3.96165
O 3.31938 8.6973 4.71559
O 0.567303 -3.01263 -4.78094
O -4.11648 3.60334 7.27752
O -1.31782 -1.29359 7.09685
O -0.0229042 -0.529813 -5.60769
O -2.00221 -0.668198 1.60853
O -4.68634 -0.722847 -4.79838
O -3.3652 8.33023 1.55868
O -4.64745 7.20837 9.48731
O -2.17482 -10.0963 5.3632
O -9.94874 2.10061 2.59702
O -9.87297 9.61624 -5.47273
O -0.778351 -10.4441 3.1306
O 10.2847 10.4713 1.56964
O -9.03862 8.48433 -2.6548
O -8.97674 -10.1326 -7.34609
O 6.11714 -0.15699 -6.46213
O 8.73179 0.408602 -9.31367
O -1.14043 5.27081 -1.9072
O -9.41607 0.121823 0.84763
O 9.66728 7.19451 -2.87432
O 3.26205 -3.44589 -2.69134
O 7.55373 -4.81596 0.407129
O -4.61037 -0.195532 -0.684647
O -4.45326 7.82569 -0.828435
O -5.45694 4.01501 -3.85374
O 6.84311 8.18889 3.04244
O -2.5164 0.00863592 -6.09754
O 4.12739 10.0048 2.546
O -9.42314 -0.189603 3.49814
O 0.783889 -9.61421 7.55724
O 0.451844 6.84063 -0.161823
O -0.741765 -5.12601 -0.374065
O 4.2554 -6.46715 -4.02388
