588
Atoms. Timestep: 1790001
Si 7.10554 -2.1645 9.10499
O 6.76485 -1.42371 10.6024
H 6.98985 -0.500826 10.5901
Si 1.37518 -3.49278 9.89119
O 1.37143 -3.02879 11.5405
H 1.04694 -2.15101 11.7039
Si -1.76369 -6.48462 -7.87211
O -1.80943 -5.81484 -9.43718
H -1.75406 -6.50618 -10.0864
Si 1.77996 9.93376 9.43449
O 2.08916 10.2013 11.1115
H 1.3879 9.98169 11.7135
Si -1.55194 -4.62495 9.50397
O -2.34785 -4.0105 10.8861
H -2.41068 -4.62146 11.6109
Si -1.2 8.88406 8.81542
O -1.9722 8.30262 10.1985
H -2.61618 7.63538 9.99221
Si 6.55015 -5.23431 10.1977
O 6.88141 -5.09161 11.8654
H 7.22941 -5.87484 12.2752
Si -1.08868 -9.59937 -8.35213
O -1.37242 -9.76892 -10.0803
H -0.571732 -9.89768 -10.5751
Si -7.06263 -2.30461 -7.06324
Si 9.11305 -6.62731 1.57424
Si 5.02 -0.344622 1.94872
Si -2.19783 -1.58659 -7.71584
Si 6.19303 -5.33618 1.18287
Si -3.17334 -6.78872 -2.88906
Si 6.83448 -9.78244 7.18161
Si -9.44391 7.54204 1.36688
Si 10.3667 4.00273 5.99686
Si 8.97719 0.141791 -1.50651
Si 6.60173 -9.03276 -2.57816
Si -1.36564 -4.35249 -3.53657
Si -7.09863 0.0315978 -1.80611
Si -4.19837 6.94368 -2.2713
Si 4.70616 5.97227 -8.7221
Si 2.7605 6.16837 0.301303
Si -2.03073 4.99047 3.41813
Si -7.87775 -7.85182 -3.58385
Si 10.2335 -4.14845 -2.5607
Si 1.87255 4.7391 -4.72515
Si -3.66718 -1.21892 -4.88453
Si -6.27167 -4.33516 -9.29999
Si -1.0288 -4.74369 4.64406
Si 8.08622 -1.76955 -5.74208
Si -4.86649 5.02497 2.07972
Si -4.02934 -0.446288 7.18963
Si -8.99926 2.45452 2.06523
Si -5.18974 8.68775 7.20008
Si -0.498395 -3.97001 -6.63133
Si 1.10382 10.1622 -6.65897
Si -7.09922 7.76013 5.15337
Si -6.83439 7.86512 -6.02095
Si -2.97606 4.13967 -5.88421
Si 2.0287 -8.13504 8.01835
Si 1.52822 -5.13387 -2.53549
Si -6.39355 7.83152 2.05807
Si -2.78567 -7.34592 8.90459
Si -8.42803 7.99437 -3.53225
Si -8.40266 -6.33583 -9.73537
Si 6.31112 8.13033 7.3424
Si -0.177447 0.545736 -6.66017
Si -8.20826 -8.44934 5.56037
Si 0.00485033 3.73007 -6.82329
Si 8.32774 -9.14944 -0.054666
Si -6.83888 5.39067 -2.49033
Si -8.47237 -9.05615 -8.42341
Si -5.04772 -1.75724 -0.060153
Si 4.0446 1.42819 -0.421721
Si 6.85833 2.94634 -6.24537
Si 3.43139 7.35754 8.20788
Si 8.38219 -3.30844 4.69766
Si 4.31164 1.2996 -6.93503
Si 9.62736 4.15399 3.13181
Si 7.89422 -7.09952 8.22363
Si 6.40646 6.70357 -3.54164
Si 3.44445 -9.5032 2.80271
Si -7.67027 3.57675 7.06985
Si -0.737545 -7.27924 6.51552
Si 2.65242 8.50904 -1.61334
Si 2.02743 4.75186 7.6952
Si -9.13427 8.95764 -7.90944
Si 5.0199 3.97751 0.612911
Si -8.03735 2.91851 -0.915318
Si 7.06356 -4.56759 -6.40687
Si -1.39341 -9.43285 4.24942
Si -0.0419741 2.93951 2.74177
Si -3.1182 3.3201 0.130226
Si 0.148902 0.0464203 5.76593
Si 10.4203 -5.37431 4.04347
Si 9.5741 -1.94528 0.885825
Si -9.7457 -1.3119 -6.06947
Si -10.197 7.99028 4.3621
Si 3.91403 -9.51126 5.96238
Si 2.32231 -1.62946 2.18559
Si 6.89852 6.19709 -0.464852
Si -8.99828 -4.26859 -7.49521
Si -7.07953 0.618866 7.50867
Si -2.9475 9.02965 4.96913
Si -0.52709 6.32741 7.15651
Si 1.13782 1.80064 7.78587
Si 2.0857 -4.28931 3.87733
Si -5.44659 -3.70751 -4.92681
Si -6.23389 -8.56036 -6.24344
Si 9.27031 0.976427 5.36669
Si 8.68431 6.45296 6.25591
Si 2.36178 -2.56058 -0.794125
Si -5.00769 -5.83271 7.49181
Si -0.290178 -0.174255 2.77431
Si 6.29742 -10.2293 2.16894
Si -6.60921 3.15351 4.07721
Si -6.80447 -4.29143 0.302742
Si -2.37352 -4.97603 1.65625
Si -4.90738 9.95583 -1.99721
Si -9.66128 -1.2088 -3.05225
Si 5.22771 -3.44498 -8.47123
Si 3.52925 -9.55703 -1.80234
Si -4.81662 0.394606 4.26202
Si -6.88256 0.387785 -8.45977
Si -9.85802 -0.311894 3.02093
Si 6.93059 -2.66098 2.2436
Si -10.2352 -9.97316 3.71168
Si -3.89649 -9.5087 -4.5648
Si 1.00266 2.01989 0.0342215
Si 2.554 -0.823733 -5.53213
Si 0.982092 4.39751 -1.73257
Si 4.99431 -1.6248 6.79236
Si -7.42009 -0.866704 4.96181
Si -3.6067 -10.1267 8.32462
Si 7.32061 9.59318 -4.4596
Si 2.79347 3.80047 -7.48252
Si -10.0217 4.02219 -6.14864
Si 3.71667 8.62795 -7.12894
Si 7.11301 -8.48137 -8.44219
Si -10.163 -6.64109 6.96997
Si 5.43394 -9.9702 -6.50442
Si -4.17119 -8.47053 3.266
Si 7.13959 -4.18534 -1.73122
Si 6.12438 0.598507 4.6954
Si 2.12143 4.36922 4.49928
Si -5.73293 5.72428 6.9374
Si -7.22158 4.84598 -5.48349
Si 3.53363 7.25866 -4.35658
Si 10.1141 8.44115 -5.47374
Si 7.03758 5.15871 3.93183
Si 6.67848 -1.23873 -2.96257
Si 4.31842 -4.56764 5.97577
Si -10.0785 10.4511 0.580991
Si 9.94181 2.98686 -1.56417
Si 3.09819 7.04065 2.97359
Si -1.40266 0.389409 -3.70774
Si 3.77247 -0.533654 -2.71947
Si -7.61136 -5.55065 4.44837
Si -2.32044 -2.92488 -0.791565
Si -3.82668 7.23377 -5.4574
Si -5.66147 2.70319 -6.80156
Si 1.66676 -7.39913 -0.650791
Si 6.44971 -0.614362 -8.30081
Si 0.633409 9.79901 2.59699
Si -10.0364 -5.88843 -4.95741
Si 3.1747 -6.46624 1.81505
Si 10.0343 -5.3131 -9.49962
Si -7.80226 -4.85778 7.58598
Si -3.10473 0.346607 1.55772
Si -2.8731 4.39856 6.42723
Si -8.48625 -1.97196 7.58527
Si -2.93159 -3.4701 6.84987
Si 9.45452 -1.58184 7.12343
Si -1.81142 9.75569 -6.01097
Si -0.23739 -0.621987 -1.023
Si -3.23368 2.73209 -3.06841
Si 3.75725 8.4254 5.55678
Si 3.65484 -5.56281 9.01129
Si -4.1868 9.84145 2.17268
Si 9.72894 5.46637 0.352115
Si -1.5169 -7.53049 -0.240411
Si -5.69453 1.09183 -4.2914
Si 7.18568 -5.5485 -9.26136
Si -9.74185 1.31159 -7.9214
Si -5.21111 -5.49729 2.54405
Si 10.1393 6.5205 -7.7873
Si 6.08708 -6.28512 -3.98441
Si 4.82591 3.2522 3.59988
Si -0.235507 8.54243 -0.313187
Si -4.93812 -1.87438 -9.19048
Si -5.34478 -8.60356 6.13076
Si 7.54311 4.73225 -8.62887
Si -0.497235 7.27739 4.28615
Si 2.89876 -8.9004 -4.81598
Si -1.5762 5.78658 -0.901806
Si -8.03551 -10.4171 -1.74609
Si 8.36853 1.76456 -8.64203
Si 8.41817 4.24158 -4.17302
Si -1.90923 1.51054 7.37164
Si 7.99903 -8.78929 4.50789
Si -9.84788 -4.50278 0.192649
Si 2.72141 -3.63273 -6.95184
Si 6.10293 7.61923 2.12622
Si 3.1345 -5.84816 -4.93929
Si 1.90811 -1.0551 7.93765
Si -2.46353 10.5026 -0.171276
Si -6.05113 -5.57529 -2.41779
Si 9.86047 -7.65353 -7.30785
Si -4.69884 -5.90345 -7.07522
Si 6.92382 -5.9817 5.50272
O -7.45241 -3.66412 -8.18851
O 3.52519 9.95457 6.08414
O 7.65297 5.71126 -4.01273
O 7.66267 5.74923 5.26203
O 4.83131 0.452804 0.606083
O -7.77078 8.47167 -7.17803
O -10.2689 -2.68646 -2.82308
O 7.15252 -9.88428 0.847638
O 9.84463 4.06346 -0.416447
O 7.00179 -9.43882 3.35437
O -0.231227 9.51124 -5.91469
O 7.62705 -5.20051 -7.73805
O -4.78858 -8.89214 4.64338
O -0.839929 -5.47805 -7.06443
O -1.89692 7.84396 4.73764
O -7.29314 8.39847 -4.59939
O 6.6742 9.72541 7.59846
O 3.25815 -5.00036 -6.21393
O -6.16569 -5.42661 1.25092
O -7.33084 2.18485 7.76791
O 1.86585 -6.62754 -2.03078
O 6.98504 -10.4501 -3.20159
O 8.19176 -2.61147 1.32943
O 7.98007 3.24525 -9.17633
O -8.96333 -9.41036 4.5329
O 5.23951 -0.780138 -3.22925
O 2.21778 6.94626 1.61886
O 3.43886 -1.2448 7.3432
O -2.37065 -5.6108 -3.62337
O -6.89852 -6.84217 -2.75401
O 3.8076 4.86346 -8.23633
O -8.54167 9.27986 -2.50135
O -5.5736 6.49672 1.74556
O -1.4914 3.58396 2.75195
O -4.38326 -2.60176 -4.49049
O -2.84233 6.37447 -1.60682
O -10.4572 3.04971 2.46693
O 1.11847 -3.70505 -6.97477
O -6.49719 8.7671 6.26292
O -5.57457 -2.32025 -7.76853
O -1.01083 -3.73478 -5.04335
O 6.61404 -4.57931 -0.235799
O 8.02438 3.92215 3.5016
O 8.74164 5.8176 -8.45091
O 5.38955 -9.354 6.57742
O -1.40833 9.50715 -0.877505
O 5.31311 2.0665 4.65165
O -10.0765 5.18717 -7.29372
O 8.99019 -8.05984 0.906767
O 7.45456 -1.30172 -4.33829
O -6.22534 -5.15408 3.75469
O -8.4855 -5.77449 -8.17373
O -4.54006 -9.61847 2.2638
O 5.43798 2.20339 -6.29505
O 1.11175 8.54671 -1.26031
O -1.80828 5.35078 7.13274
O -3.95674 8.74834 6.14072
O 8.80289 9.20063 -4.88299
O 4.61872 7.15851 2.44446
O -9.89104 6.32961 0.441693
O -0.0550815 -4.24274 9.56698
O 6.74646 -2.68511 -2.24664
O -2.57249 2.88599 6.88604
O 5.17562 3.22577 2.0791
O 5.17771 0.299149 -7.89476
O -0.433831 5.1286 -1.80633
O -6.70266 0.462815 -3.27774
O -3.57201 -8.0595 -3.97597
O -2.86266 9.79074 1.20188
O -4.038 3.08317 -6.63907
O -4.60941 2.02223 -3.50499
O 0.372381 8.47201 3.56933
O -10.0621 -2.01689 7.39858
O 2.6927 -0.797358 -3.92181
O 6.72313 -5.67612 -5.33521
O 1.84707 4.46418 -3.1233
O 7.42304 -8.61463 8.14711
O 2.86987 4.01038 -5.83534
O -8.84945 10.3581 -8.61589
O -6.96164 3.51443 5.57759
O -3.4256 3.16884 -1.49493
O 1.85639 -3.95729 -1.45416
O 7.65537 7.30128 7.18478
O 9.90922 -6.55049 -8.47859
O -6.56317 4.78773 -4.00512
O -9.92287 7.65781 -8.50485
O -4.09307 -6.52766 8.62344
O -3.90853 -2.65505 -0.741123
O -4.54247 -6.19068 -2.34533
O 0.0310284 6.64814 5.62539
O 5.02046 -5.71775 9.83491
O -6.87057 4.82801 7.60083
O 10.4679 -5.84301 5.62716
O -8.58563 -0.934044 3.85888
O -9.24251 0.925365 2.16533
O -2.02619 1.68239 -3.05473
O -3.40368 5.41207 2.64842
O 2.96838 -2.24859 -6.09352
O -9.50392 2.7927 -1.745
O -2.21861 10.069 8.27296
O -9.94972 7.43156 2.85835
O 2.56315 -4.57312 9.6228
O -4.76344 9.68918 8.3888
O 7.84346 2.00745 -7.10555
O 4.92726 6.44272 -4.01022
O 3.56859 0.354723 -5.91431
O 5.81523 -3.72869 -7.01356
O -1.82935 -6.27837 9.70543
O 7.44363 0.469501 -9.06735
O -4.14157 -4.57715 6.89334
O -0.478881 1.92023 8.12103
O 2.31344 -4.90129 -3.94264
O 4.00944 -4.93131 7.54297
O 7.44978 -2.47996 3.73072
O 0.636418 5.54914 7.82403
O 6.14486 5.48914 -9.14165
O 10.1184 -5.60224 0.787843
O 5.85757 -4.62435 -9.34448
O -7.83748 6.652 -2.89666
O 7.51782 -0.219627 -2.03825
O 2.86568 -6.96718 8.77515
O -9.30536 -4.85407 -6.00981
O 10.1275 -5.0634 -3.93705
O 2.29465 -6.47855 0.473469
O 5.52123 -0.456909 5.70844
O -9.7783 -4.75548 -1.44438
O -3.00872 -1.43855 -6.32826
O 9.46355 -7.04339 7.73435
O -8.70137 4.27127 -5.36597
O -6.43284 10.3335 -1.57461
O 7.68027 0.866996 4.99528
O 9.53991 -9.0847 4.11777
O -1.98556 -7.51147 7.54168
O 1.23444 4.25024 -7.7916
O -7.2926 -0.709564 -7.2797
O -5.52992 0.12044 7.62755
O -2.01763 10.4928 -7.50507
O 2.98333 7.96817 -3.06614
O -1.55315 -1.50143 -0.65425
O -7.96459 -3.36835 8.19049
O 5.83342 0.231044 3.16202
O 4.68326 -5.98639 1.33079
O -8.84791 -10.301 -0.334407
O -6.13558 2.00138 -5.46044
O -7.18076 -9.07934 -7.46496
O 8.5122 -5.13086 -10.0801
O 10.2364 -1.3361 2.22298
O 2.49413 -5.41936 2.79454
O -8.43996 3.00385 0.67254
O 1.85325 3.22839 8.14446
O -5.60685 1.8345 4.15854
O 1.12669 -0.330328 -6.20028
O -7.84587 7.74789 1.32614
O -2.06474 10.3334 5.08026
O -1.90665 -3.66928 5.57391
O -9.24674 -1.0643 -4.58726
O 3.6031 -3.49027 -8.31335
O 4.77403 -9.93518 2.00509
O 6.88704 4.22962 -7.12793
O -10.4381 -3.05013 0.331835
O 6.29189 -4.216 2.29458
O -5.17898 7.85419 -6.05629
O -6.04321 -2.78703 0.589519
O -5.1803 -7.08297 6.4488
O -3.81267 0.557178 3.01465
O -3.74915 9.23945 3.60517
O 1.72977 0.446695 8.47366
O 9.70417 -1.70679 -5.8678
O 2.59896 -7.31832 -5.08441
O 9.58371 5.23626 6.73883
O -1.97267 -3.96307 0.481365
O 9.64102 7.41902 5.3427
O 2.91568 -8.61623 6.76785
O -7.48486 0.429663 5.88172
O 0.769744 -1.06344 6.78513
O 0.274742 9.45555 9.14048
O -8.00482 2.85678 3.29213
O -9.04192 -5.21707 3.77606
O -3.8737 -4.67256 2.13102
O 7.80485 -3.3538 -5.87616
O -2.01783 -6.42394 0.904497
O 4.72537 2.84161 -0.421304
O 5.95963 -8.74326 -7.32572
O -2.93602 3.72244 -4.29245
O 4.5338 -6.0872 -4.13741
O 9.3342 -0.817167 -0.289341
O -2.34509 -7.30211 -1.59894
O -7.29809 6.35199 -5.86351
O -2.48379 -0.820565 -3.94177
O -6.4431 -5.49984 8.08335
O 9.57212 4.06657 -5.31787
O -1.30409 -2.93981 -7.55929
O -1.59307 4.04771 -6.63542
O 5.83727 -1.99654 -8.78816
O -6.74578 -2.94111 -5.59856
O 9.59879 -10.1188 -0.189367
O -4.38915 -9.42442 7.09773
O -5.92047 -0.766612 4.31667
O -2.56446 -8.63173 3.536
O 3.00292 -9.25516 -3.30957
O -2.90191 1.81131 0.738777
O -9.17979 -5.66166 7.71858
O -3.96009 7.03999 -3.86183
O -8.68647 7.82338 5.07111
O 4.27244 -9.36853 -5.45014
O 9.64698 7.25005 -6.47246
O -3.30613 -8.88399 9.29443
O 0.618309 -7.46489 7.40681
O 6.527 -7.77428 -3.61379
O 8.72849 -2.38287 5.98069
O 4.81855 -3.04763 6.1024
O 3.01526 5.79713 8.46544
O -6.02561 -0.871419 -1.07322
O -5.18566 -5.15297 -8.50383
O -9.80422 -5.87647 -10.4546
O 8.51673 -8.41938 -7.52652
O 2.17128 9.03793 -7.30672
O 2.56212 1.66502 0.156098
O 0.0925793 0.725379 -0.209416
O 3.00173 7.4828 6.64739
O 3.31511 7.40339 -0.619092
O -2.98269 0.507403 7.97223
O 6.7253 -3.74201 9.46051
O -6.86364 -8.95145 6.1486
O -3.59961 -2.00107 7.16421
O 4.29302 7.39015 -8.07077
O 10.178 0.335798 4.15788
O -6.53933 -4.70015 -1.1888
O 5.82704 -1.69297 1.69662
O 5.04827 7.56719 8.28576
O -0.938949 6.09301 3.32523
O -6.45966 6.39454 5.63334
O -6.64449 8.04806 3.62989
O 9.6834 -3.91879 3.9406
O -6.0032 -4.57522 -3.71702
O 2.5351 -8.69414 -0.897321
O 3.77445 0.779345 -1.83347
O -1.68351 -0.205775 1.97738
O 9.45237 5.23076 2.00748
O 5.59063 4.58492 4.058
O -5.35415 7.1539 7.69889
O -5.81812 4.25236 3.12489
O 7.34125 3.27062 -4.79094
O -5.98255 1.59703 -7.92184
O 9.91647 1.48095 -8.7334
O -1.05371 7.7064 7.77297
O -9.75662 -8.51733 -7.4759
O 6.09923 -1.72246 7.96687
O 5.35844 8.22213 5.94786
O -4.84001 -4.75285 -6.02108
O 9.54531 -0.0359169 6.58576
O -5.51076 -3.14692 -9.97198
O -2.07959 -4.03128 8.12466
O -0.887386 0.780377 -5.18093
O 6.56311 -5.27413 -2.7534
O -7.36437 4.21356 -1.58763
O -4.91097 -9.35797 -5.83237
O -0.344665 -10.1002 3.29455
O -3.50433 5.71708 -5.9898
O -9.27881 3.80165 6.73079
O -3.73377 -10.3833 -1.10094
O 7.76762 -4.68899 5.12506
O 0.138614 2.10268 -7.01351
O -8.01787 -0.513042 8.25038
O 0.977243 -0.775516 2.06242
O -5.4688 5.97021 -2.00011
O 7.53115 -7.26721 4.8014
O -1.99822 4.50658 0.0122769
O 1.74633 -9.84048 -5.63016
O -1.2551 -8.02943 -7.95991
O -8.1496 -7.93059 -9.50794
O -8.93071 -2.45367 -6.83453
O 9.17195 1.68201 -1.11315
O 6.92545 -7.09661 -9.22991
O -5.69998 -7.09689 -6.66363
O 0.763099 3.79395 3.92564
O 7.71175 -8.78187 -1.46445
O -7.74926 -7.16928 4.70749
O 0.566439 2.93054 1.27701
O 6.39109 7.3925 0.575714
O -10.483 9.54851 4.20704
O -0.0741807 1.41972 3.05672
O -1.18653 -0.314589 -7.54921
O 7.06284 -6.35232 7.05659
O 7.19954 -9.75979 -9.31747
O 6.30552 4.79449 0.103053
O -7.07231 -8.35044 -4.85562
O 2.38166 6.258 -4.81203
O -2.48211 4.62029 4.89697
O 2.78189 8.73767 8.91049
O 7.40903 -0.967072 -6.98749
O 3.14709 -8.02096 2.27477
O 8.77375 -4.15374 -1.86657
O -7.25271 -5.32035 -10.1256
O 8.50619 6.14624 -0.32139
O -5.49025 9.06532 1.62643
O -6.47609 4.10306 -6.67957
O -1.23381 0.610707 6.24553
O -8.48697 -0.816362 -2.05444
O 3.77635 5.0169 0.725416
O -8.34984 -4.35915 0.64383
O -4.42537 3.98139 0.933117
O 7.56564 -6.23774 1.39552
O 6.36137 9.1772 2.50697
O -0.865218 7.10243 -0.209926
O -10.088 8.86761 0.645427
O -7.57449 -4.89737 5.94299
O 1.72847 5.32402 -0.60653
O -0.370758 -0.197026 -2.64561
O 2.21315 -2.822 3.21452
O 3.33357 2.34535 -7.79033
O 10.0813 -6.88974 -5.84596
O 9.21078 3.58085 -2.89207
O 1.60881 -2.23344 8.96737
O 3.84687 -9.38183 4.3674
O 10.3644 4.54466 4.44488
O 0.538332 4.22052 -5.3797
O -9.06336 -6.96418 -4.13422
O -4.42653 4.83932 6.69373
O 3.43883 -1.75028 -1.66005
O -7.81992 -1.89095 6.12269
O -1.62409 -4.95631 3.14123
O -5.94754 -0.530551 -9.39904
O -8.33538 1.05372 -8.75279
O 2.15237 10.442 2.70804
O 6.73075 8.1998 -4.01085
O 0.0696747 -7.50971 -0.525858
O -10.324 -4.14262 -8.57468
O -2.51839 -10.1826 -5.0855
O 3.2528 9.91408 -1.42104
O -2.64206 8.35766 -5.82535
O -1.02329 -5.9691 5.69299
O -3.39217 -1.62204 -8.92103
O 1.07883 1.31914 6.21526
O 2.99158 -4.57151 5.1101
O -0.102657 -0.64783 4.3706
O -9.81437 0.0566986 -6.94437
O 9.7714 -6.44014 3.04275
O 0.204277 9.25206 1.12533
O 3.78023 8.1425 -5.63071
O 6.51892 10.3576 -5.6106
O 0.886107 2.89174 -1.25922
O -9.97675 -10.0636 2.09976
O -4.07908 0.152194 5.65417
O -0.650609 -8.4103 5.36871
O 7.76378 -9.6115 5.85906
O -8.25432 -9.13211 -2.66967
O -9.32349 -7.98703 6.65749
O 7.5559 -6.24788 9.55027
O -4.59709 -10.4428 -3.4395
O -10.0675 9.31306 -6.55535
O 1.03141 -1.58209 -0.897975
O -7.34205 1.44906 -0.975581
O -1.85933 -3.50524 -2.21506
O -9.87619 7.9056 -4.30647
O 5.07967 -9.21351 -1.8546
O 2.74131 -2.41543 0.730978
O -1.89084 -9.02765 0.15257
O -3.23541 -6.38747 -7.27934
O 6.9563 6.49053 2.88595
O 3.25826 3.4195 3.82122
O -4.61911 -6.99648 2.89905
O 10.0503 -0.156363 -2.73633
O -4.78212 -0.0442238 -4.86483
O 2.28772 4.44498 6.11676
O 0.388276 -10.1421 -7.94485
O 3.56485 -0.641855 2.48679
O -4.63479 8.3939 -1.84619
O 0.00871434 -4.9531 -3.03199
O 4.64997 9.91277 -7.33927
O 9.76204 2.50741 5.68707
O 5.40835 -5.52087 5.34985
O 8.52401 -1.87628 8.40085
O 3.24797 8.16565 4.13103
O 1.87494 -9.63627 8.73188
O -4.14355 -0.628278 0.70802
O 2.50926 5.79853 3.80724
O 0.529109 -4.39992 4.39692
O 6.43403 6.4186 -1.95947
O -9.81839 2.62267 -6.94195
