588
Atoms. Timestep: 1790001
Si -10.1033 -0.832193 -9.42589
O -9.94971 -0.924994 -11.1179
H 10.5007 -1.60794 -11.4596
Si 9.49516 -9.24661 -8.70214
O 9.36652 -8.20626 -10.0139
H 8.50536 -8.21469 -10.4149
Si -9.25089 9.45371 -9.07373
O -8.93755 9.11352 -10.7112
H -9.4331 9.62892 -11.3367
Si 2.02303 10.0319 9.90789
O 2.26562 -10.0019 11.3351
H 1.99361 -10.4029 12.1522
Si -8.65095 2.09302 -9.01692
O -8.88008 2.74402 -10.5864
H -9.71196 3.19168 -10.6868
Si 2.53467 -8.68551 7.77825
O 1.59747 -7.68394 8.73892
H 2.05636 -7.33266 9.49292
Si -1.08677 10.1208 9.88025
O -1.44114 10.2523 11.546
H -2.35239 10.0791 11.7512
Si 4.90743 -6.78941 7.54217
O 4.08416 -5.85447 8.7067
H 4.65958 -5.33635 9.25711
Si -5.28921 -2.4768 9.14052
Si -6.2079 -0.151047 8.65744
Si -5.90593 -7.69587 -2.03785
Si -3.22202 -1.12828 0.800744
Si -8.10316 -2.70241 0.279156
Si 2.61799 -6.17677 -3.54961
Si -9.79474 -1.14281 2.46504
Si -5.90976 10.4737 2.22176
Si -9.06885 -5.94126 7.51197
Si -8.51952 0.20146 6.71815
Si 9.89224 -3.68326 -3.68813
Si -3.68014 -6.4452 4.92629
Si 5.85624 -4.80409 -0.115029
Si 7.30356 -7.02327 -1.73377
Si 6.24763 6.27777 8.34639
Si -9.6172 4.05638 -6.68247
Si 1.27675 -2.12921 -0.0484869
Si -5.77438 1.81921 -7.5877
Si -10.3764 -7.46031 -6.24826
Si -10.1919 -3.37092 4.47253
Si -5.18264 -3.42371 0.180718
Si -7.8744 3.29483 6.33623
Si -3.87012 0.919916 5.08387
Si 2.54553 -7.11914 1.21484
Si -1.86305 -4.68563 -2.59957
Si -1.49243 -0.170917 6.64945
Si 3.89439 2.37568 -1.76152
Si 2.5579 1.13981 4.37121
Si 4.54696 1.82661 2.44256
Si -1.79731 -7.56768 -2.39593
Si 8.49241 7.69867 2.35625
Si 4.09664 0.942567 -4.26945
Si 4.58318 5.00562 1.8158
Si -4.1063 -8.18589 -4.35699
Si 5.24181 8.8647 -2.1862
Si 5.09963 -6.16639 -5.38586
Si -8.90262 0.930605 -3.19371
Si -9.21043 -4.79908 -1.65378
Si 0.874611 2.16326 -1.11293
Si -2.26118 7.51804 8.31373
Si -10.0644 -10.4068 -0.265287
Si 8.37035 -4.51902 2.97316
Si 1.52671 -9.78647 -0.131068
Si -4.61013 -6.41919 0.647683
Si 0.896247 -1.36064 5.06065
Si 0.75235 8.56846 -5.79596
Si -5.18419 -1.26079 -7.62488
Si 8.67011 3.01636 -5.78117
Si -0.607415 -1.36834 2.25129
Si 9.53392 9.99298 7.1362
Si 0.149232 6.30241 -7.97244
Si 7.85446 3.8167 -3.16379
Si 5.04906 -6.64432 2.38127
Si 8.39021 -9.17283 0.459923
Si 5.00336 8.3595 6.39392
Si -7.46354 0.627314 2.35827
Si 3.7257 7.59907 9.01303
Si -3.63405 3.36715 3.1388
Si 2.47606 5.88373 6.94029
Si -1.21877 -1.70121 -1.73336
Si -1.45729 -5.57485 7.14873
Si 0.969354 -4.46628 5.58995
Si 7.19262 10.3652 -7.18711
Si -6.89499 -5.16332 -3.79909
Si -5.72693 -7.65318 -6.91432
Si -2.60882 -10.4231 -1.28565
Si 10.2049 5.74072 0.548783
Si 5.24754 3.27604 7.6874
Si -4.82652 -7.9197 7.26986
Si 0.836502 6.73587 -1.83664
Si 0.315817 -6.18584 3.33463
Si -5.92697 6.34625 -0.726748
Si -5.98747 5.59656 -3.90976
Si 10.0048 5.84835 -2.57337
Si 2.25533 2.8533 -8.54253
Si -10.1721 9.61084 2.70133
Si -2.28902 -2.20692 -7.25472
Si -4.34876 1.14674 -0.956852
Si 2.85396 -4.76809 -0.903563
Si 1.20573 0.634695 -3.74769
Si 0.0426275 -5.34117 -5.07365
Si -3.19702 -9.05524 -7.07815
Si -10.1432 7.08965 -7.05329
Si 3.85467 9.25628 0.583252
Si -6.12104 -5.18847 8.08079
Si -1.6691 3.38802 -4.73036
Si -2.22598 -7.39319 2.31016
Si 2.17178 2.92077 6.97121
Si 4.74878 -3.13608 -6.08526
Si -7.76922 8.08375 3.43999
Si 5.76919 -1.9924 1.28855
Si -7.20693 0.0673432 -0.738119
Si -6.95548 -7.5342 2.33957
Si -8.70441 7.16323 -4.26312
Si 8.99811 7.19024 7.87689
Si 10.2222 -8.22155 7.32194
Si 0.0853277 -0.111845 -6.56877
Si -5.01017 -3.7567 5.52586
Si -8.12844 9.78636 -2.45377
Si -9.20117 -9.75802 -4.85048
Si -1.17152 -10.3191 1.46368
Si 8.89386 2.86996 0.612221
Si -9.55739 -1.50368 -5.11486
Si 6.21308 4.1341 -0.565919
Si 7.31422 3.53133 5.46241
Si 7.81364 -0.15966 -8.8834
Si -0.263294 2.84546 -7.91465
Si 0.482263 1.56165 1.92664
Si 0.792106 6.05721 3.5494
Si -8.05901 -2.54969 -7.78411
Si 7.46823 1.57399 2.97851
Si -5.45644 9.49756 -0.772343
Si 6.06429 -9.30992 -3.17773
Si -1.05366 10.0305 4.43077
Si 3.64233 -0.026053 0.04183
Si -3.36175 7.23037 -4.85786
Si -8.95318 -6.08325 4.27893
Si 6.19917 -1.3791 -4.00243
Si -3.92598 -1.53761 -5.00521
Si 9.45893 -0.801157 7.33049
Si 2.33942 -2.2597 -7.72723
Si -8.52623 -7.63971 -0.401807
Si -2.7931 -2.78351 7.5886
Si -1.76431 -8.35554 8.00238
Si 5.11815 -1.51792 -8.44694
Si 3.87762 6.44203 4.43409
Si 8.62828 -2.04511 1.19217
Si 2.16351 6.74574 1.07128
Si -9.38675 -10.0131 5.3071
Si 4.37904 1.27873 -7.30907
Si 6.75454 -10.4106 5.3987
Si -2.92446 4.80424 7.70495
Si -3.11716 3.57517 -7.55488
Si -4.63936 -3.37356 -2.83529
Si -0.00713953 -4.20217 -7.73973
Si 7.71282 7.71638 -3.64306
Si 4.01301 -5.16462 4.98743
Si -9.58779 5.81982 6.86417
Si 8.28352 -6.07506 -4.66211
Si -4.29072 9.16094 -6.961
Si 9.92229 -3.71649 7.47721
Si -4.15763 7.11526 6.18088
Si -1.19121 8.59244 -3.29458
Si 6.45354 9.83518 2.2545
Si -7.13872 2.9019 -5.0111
Si 3.0702 7.5183 -3.88193
Si 8.74194 -10.4655 -4.35703
Si -3.73078 4.06423 0.0101145
Si -6.38245 -1.05519 4.59752
Si 7.81681 -6.05971 6.98639
Si 7.34065 -0.56458 5.20136
Si 9.03797 6.20954 5.02545
Si 2.80168 5.82693 -8.6903
Si -7.18475 -10.4671 -7.01045
Si 7.04084 2.62868 -8.41204
Si 5.67776 5.27785 -8.16473
Si -7.10077 7.76144 6.47904
Si 9.22862 1.42222 -2.04563
Si -0.739761 2.67987 7.05127
Si 7.06334 -7.63088 4.56758
Si -4.12863 9.6942 4.5864
Si -5.06274 2.57636 7.58765
Si -0.494932 -7.36172 -7.18161
Si 9.3732 -7.45863 2.87408
Si 4.70411 -9.08378 -6.1103
Si -6.73754 3.4611 3.45373
Si -7.9264 -5.56393 -6.80454
Si 8.25361 -1.60213 -1.9439
Si -0.107141 7.5112 6.03287
Si 3.62512 5.32349 -5.83015
Si -2.80011 6.60505 -7.72283
Si 1.09957 -8.79155 -3.06492
Si 8.56328 -0.14267 -5.78959
Si 7.6608 7.32541 -6.79219
Si -1.23334 4.35594 -1.84633
Si 5.80477 -3.00311 4.03461
Si -0.780091 3.51159 3.92512
Si -2.46859 0.497472 -3.57983
Si 0.325204 -8.50693 5.58543
Si -6.46173 -10.3627 6.53568
Si -7.84119 5.61043 1.51143
Si 7.45249 1.35226 7.40644
Si 1.39716 3.3043 -5.36065
Si 1.55103 -9.54247 -6.091
O -5.84245 -1.20581 9.92852
O -8.95287 4.33384 6.84601
O 6.5678 10.1976 3.80732
O 7.99099 -0.267544 -7.27207
O 9.81497 -9.70088 7.89146
O -3.33395 5.14882 -7.90313
O -3.39183 -8.43697 7.70431
O -4.23627 -2.02232 -3.55267
O -7.53372 3.70524 4.80716
O -8.3292 8.48502 -3.44117
O -3.22174 -0.108409 -4.82233
O -4.41636 -2.19686 0.825759
O -10.2472 -6.95806 3.60601
O 6.4932 7.95645 -2.71881
O 4.73626 5.7357 3.22112
O 4.00703 0.791882 -1.26339
O 10.3088 6.26132 7.92994
O -5.31151 1.23619 8.54957
O 8.78109 6.69775 -3.02262
O -1.09689 7.23857 7.23392
O -4.46821 -4.79236 0.523392
O 8.19459 -6.54255 -3.05902
O -2.56419 0.13157 5.47523
O 8.08085 2.30649 -2.6267
O 1.20242 -9.51249 -4.48098
O -3.71326 0.364023 0.332718
O -0.145517 1.40729 -7.13638
O 3.7688 1.06814 1.20714
O 4.83026 -3.84539 4.90106
O -10.4148 1.47721 -2.96124
O -6.56039 -9.03609 -6.91132
O -7.69424 -6.85855 3.58896
O 1.87018 2.95919 -6.92583
O -10.3526 -3.33249 6.06259
O 0.0385578 4.63018 -7.7777
O -1.03717 9.73206 2.75696
O -1.79633 1.82442 -4.15744
O -0.141361 0.102146 1.82306
O -5.63832 10.1478 0.692227
O 9.26198 7.19399 -6.95702
O -5.445 7.88228 -0.709179
O 4.26548 -5.74073 3.48094
O 7.66724 -9.49719 -3.53134
O -4.44048 2.75367 -7.77475
O 0.10145 -1.63242 3.64893
O -6.28674 -6.51623 -3.08817
O 4.70917 -6.18075 6.03034
O 10.126 3.57309 -5.87887
O 1.28605 -9.63552 -1.72403
O -7.27499 -8.18216 -1.29968
O 5.8045 4.7425 8.2973
O -0.139254 7.94671 -2.26803
O 1.53639 6.95761 -0.366763
O 9.35506 8.70229 8.09026
O 9.39064 -8.3303 1.53067
O -3.38109 -4.31306 -2.79541
O 0.270643 -2.23609 1.21517
O 0.445774 9.76236 9.80447
O 7.20596 -1.41313 1.67122
O -0.092382 5.46338 -1.93099
O 0.0347346 -5.2462 6.6503
O 4.47262 3.42244 2.13148
O -0.357992 3.06225 -1.46529
O 5.08149 -2.30008 2.73522
O -7.65622 -1.41863 -0.593794
O -1.65206 -6.74945 8.24385
O 1.46148 2.11012 -4.31634
O -7.97603 10.231 -8.35973
O -0.0843423 -5.8463 -8.00165
O 9.43754 -4.08211 4.0581
O 2.74266 4.27865 -9.00785
O 10.0348 -0.890369 -5.65754
O -8.40829 -10.0079 -3.45612
O -5.20538 -6.51684 8.04557
O -9.27125 9.76767 -1.31124
O -9.74773 -7.29109 8.02455
O 1.57245 -6.65098 2.43155
O -8.29055 6.8814 7.01938
O -9.37592 -6.28535 -6.78
O -10.4668 -4.55154 -2.55113
O -1.85032 4.21593 -3.33472
O -3.96012 8.67161 -5.44757
O -1.39666 -9.56285 9.03141
O 5.2 6.99197 9.36665
O 6.836 -5.63648 -1.10977
O -4.75497 5.36229 -0.263512
O -6.03535 -9.10619 7.46317
O 3.17831 -9.48871 -6.26549
O 0.902261 6.60698 2.06473
O -2.40233 4.41733 -0.739307
O -5.66153 -1.48484 7.78451
O 9.79623 -1.158 1.68552
O -0.946637 -4.87378 -3.87272
O -6.68962 -6.50897 -7.31981
O 2.35403 6.4197 3.90256
O -9.11684 -4.48003 4.02314
O 4.15469 2.25702 -3.34508
O 7.08567 8.29392 2.09515
O 0.798318 0.950528 -2.1974
O -8.05788 -7.52078 1.13313
O -9.47408 7.49114 -5.63512
O -0.300867 -8.04282 -2.85009
O 5.2868 -0.083471 -4.0497
O -4.99653 -8.63203 -3.02011
O 6.10827 -7.34618 3.34995
O -8.26011 0.737651 -1.74789
O -0.159584 -9.6614 4.56177
O -1.59996 3.9549 7.43909
O 7.5204 -0.966561 -4.79382
O 6.38647 -0.970362 -9.32812
O 2.76742 10.3313 0.118579
O -1.22834 -0.954348 -7.01914
O -3.18856 -6.91194 1.11104
O 9.34524 -10.2497 -0.284113
O -5.36117 0.308579 -7.91644
O 8.42997 -8.2078 3.96047
O 6.50966 -6.5264 7.82974
O 6.66254 0.371754 6.32046
O -9.77188 10.0737 1.22472
O 1.08071 -2.82116 5.73011
O -3.60535 1.81846 3.75552
O -3.71204 -2.66437 8.93077
O -5.78139 -4.45896 6.72001
O -2.58585 10.1323 4.80959
O -0.196511 3.60942 -5.24497
O -10.0386 -1.98555 3.78158
O -7.35436 4.23274 2.18869
O 9.50005 1.94845 -0.541488
O 6.8818 4.52509 -2.00663
O 1.83994 -8.38816 0.480836
O 4.91414 3.29726 -1.03391
O -8.34625 3.74869 -5.7487
O 0.330474 -7.20553 4.63117
O -5.74047 -6.74456 1.68808
O 5.71289 -5.76036 1.20406
O 0.0765028 -4.14183 -6.14446
O 3.1532 5.44823 1.17966
O 6.494 -8.778 5.54613
O 10.3001 -10.1821 -4.61462
O 4.0101 -8.17201 7.63568
O 1.31444 -3.37546 -8.21058
O -4.33946 1.89516 6.25827
O 0.397332 7.30466 -6.72261
O -3.36225 -9.11069 -5.4582
O -5.89799 -2.60411 4.76498
O 3.94005 1.41721 -5.77334
O -9.67853 8.16608 -8.17025
O 7.34798 7.3011 -5.15615
O 3.62046 -1.96379 -8.7772
O 2.5265 4.40614 -5.12072
O 1.3573 7.06639 6.54385
O -6.96593 9.36765 2.7982
O -5.79554 -4.0369 -3.74973
O 4.37558 6.01236 -8.8984
O -2.18052 -1.40375 2.04825
O -1.9528 -1.50101 7.43687
O -10.03 -4.7676 8.03411
O 4.12792 -6.05196 -4.05182
O -1.42481 1.26001 7.37748
O 3.24813 -2.64328 -6.4038
O 5.4964 -2.55161 -4.8443
O -6.88782 9.20237 7.13932
O 8.89559 -4.58677 -4.621
O 6.2203 2.13626 8.15288
O 8.76475 -3.5328 1.75408
O -7.97899 1.8643 -4.12181
O 8.56199 0.38611 7.96015
O -8.3985 1.77446 6.27679
O 5.72547 9.74951 6.26763
O 8.50518 9.07917 -3.8063
O -2.15798 10.3598 0.221725
O -5.09396 -0.127857 4.9196
O 2.3295 2.74077 -1.40961
O -1.83795 8.76742 9.22633
O 4.93568 9.82143 1.68958
O -4.42094 2.71981 -0.679168
O 6.53183 -1.81792 4.72463
O 9.33506 -6.97551 -5.47086
O 2.14839 -3.46925 -0.371339
O 8.50244 -6.0537 2.67269
O 6.32594 4.02074 -8.91863
O -6.19501 3.99671 -4.27598
O 4.79913 -1.07196 0.439179
O 2.9097 6.33204 8.39675
O 2.34392 -0.920355 0.0927297
O -9.79613 -10.2255 3.80173
O -3.42741 7.98367 7.33667
O -0.360058 8.90106 5.35606
O -0.628383 -6.62058 -5.74392
O 8.74923 6.8722 3.68758
O 1.745 -8.74437 6.35385
O 6.73514 -1.68391 -2.45377
O 4.46129 -4.65876 -0.855494
O 2.92324 8.70427 9.89178
O 5.22242 -9.26601 -4.56225
O 0.349353 0.0312342 -4.98677
O 8.6846 -1.06793 5.98806
O -3.71433 -1.85186 -7.96916
O 9.25361 6.88117 1.18752
O 10.3105 6.03333 -1.01288
O -9.05143 -3.70408 -0.514244
O -9.03041 0.303432 2.67777
O -6.72705 -3.49733 0.609324
O -1.35759 -3.38558 -7.87989
O -1.56903 -0.71147 -2.9189
O 5.85315 3.59254 6.1845
O 7.45444 -6.32135 5.47211
O -7.64125 -5.71302 8.08321
O 8.07585 2.50349 6.48752
O 5.77183 -9.94999 -6.95252
O 2.77132 6.00006 -7.05966
O -4.60155 10.0714 3.07812
O -9.06628 -6.2893 -1.00626
O -2.39567 -8.85341 -1.62185
O 0.783643 2.68401 -9.09351
O 2.09522 6.71645 -2.83056
O 6.85381 6.2109 -7.55232
O -5.15471 -1.42015 -5.97229
O 8.72862 -0.0575574 -1.99059
O 3.98815 6.47998 -4.72629
O -5.21497 -3.18281 -1.38319
O 4.73239 -4.71831 -6.04398
O 4.69042 8.70674 -0.677556
O 1.53973 -5.79532 -4.70886
O -10.4431 5.97205 5.48159
O -6.45797 3.1834 7.14162
O 0.245041 -10.3839 0.616052
O -4.66758 -7.47834 5.7362
O -7.34301 7.92297 4.96109
O 7.63666 1.37737 -9.25351
O -6.91149 1.93061 3.1292
O -0.184631 6.64244 4.65718
O 7.34279 -10.0718 1.26033
O 5.57504 -2.62284 -7.41349
O -5.71215 6.98261 6.5786
O -7.50808 -5.42189 -5.23966
O 7.74025 6.54826 8.59296
O -9.73379 5.57421 -7.22709
O -7.13336 5.89846 0.168976
O 6.90596 -3.99268 3.36772
O -1.0376 -6.36347 2.47675
O 9.5271 -2.26704 8.05944
O -7.13668 2.07554 -8.62449
O -1.71976 9.8206 -2.40784
O -5.74529 0.431541 -1.23872
O 8.15317 3.00812 -7.33894
O 10.0835 -8.41151 -7.40164
O -4.03972 3.68016 8.13919
O -1.78002 -8.26735 -7.46726
O 9.33267 4.41887 -2.91782
O -4.09768 10.0159 -1.42701
O -0.654124 2.80447 5.40602
O -6.30879 2.03662 -6.10356
O -7.24616 0.650564 0.797733
O 1.05791 9.9834 -6.4477
O 2.40309 -10.0656 8.69286
O -9.04392 -0.435848 -3.96482
O 3.63486 3.01584 7.68654
O -7.6833 0.0958738 8.18501
O 7.32103 2.76458 4.07098
O -6.0117 -3.90699 9.11215
O 1.42204 -0.978742 -7.30166
O 0.758147 2.48977 7.63558
O 9.32203 9.1019 2.7014
O -2.37047 7.59153 -3.63922
O -9.9949 -2.90608 -4.49686
O -0.862296 -8.48875 6.67359
O 8.0456 4.96199 5.33279
O -2.56084 6.6148 -6.09428
O -9.46434 3.15068 -7.99283
O -6.10086 5.99963 -2.35791
O -6.73542 -0.612459 3.09115
O -9.37078 5.69203 1.31841
O -5.12577 -7.48135 -5.41605
O -7.44194 6.79115 2.55135
O 2.36531 -7.74434 -3.20362
O 2.49366 -5.00066 5.43666
O -8.97624 -6.09671 5.91801
O 7.81267 0.388559 4.03231
O 9.2865 -0.696328 -9.28655
O -3.48289 10.4486 -7.54297
O 9.70348 4.21201 0.833062
O 7.91013 -8.0225 -0.559036
O 6.76212 -6.20521 -5.15354
O -4.39749 -5.01862 4.71055
O -1.83101 -6.09602 -1.80802
O 2.60829 -5.92845 0.224928
O 7.40739 3.31925 0.115408
O 3.34747 1.69929 -8.42627
O 6.1132 -3.30521 0.45326
O -3.11315 -7.25322 3.64143
O 4.71642 -7.44996 -6.20809
O -2.26716 -1.45239 -0.512234
O -10.0433 -0.263081 6.99449
O -3.45656 5.67676 6.48873
O 0.424539 -4.78617 4.08983
O -6.75873 9.75745 -1.72666
O 5.86991 7.06776 6.9843
O 3.99519 8.53095 -3.08758
O 4.40208 7.88349 4.95262
O -3.75885 -3.0917 6.33889
O 6.06075 1.46078 2.28844
O -3.35492 0.887677 -2.23656
O -7.79486 -10.0404 5.60821
O 4.04688 1.36319 3.91368
O 3.94408 8.40514 7.59914
O 1.3801 6.46561 -8.96945
O 4.87512 4.75925 -6.70228
O 0.289556 -1.55896 -1.23334
O -0.581665 2.50623 2.69377
O -2.29589 4.05468 3.76668
O -5.13251 3.73439 3.60168
O 7.11456 8.78994 -7.35078
O -3.84834 7.80667 -7.86744
O 6.11874 -7.91843 -2.37439
O -2.60775 6.02172 8.82931
O 2.73608 0.106216 -3.90503
O 8.09251 -9.76515 -8.33091
O 0.806711 -8.36968 -6.94704
O -0.450065 8.7925 -4.69226
O -9.64879 6.20834 -3.366
O 0.854741 1.89584 0.466926
O -6.55477 -2.03762 -8.02197
O -9.3841 -8.22153 -5.22336
O -4.61987 6.21601 -4.49265
O 2.06226 -0.359071 4.74187
O -9.33425 8.36418 3.25859
O -8.30816 10.4308 -5.90082
O 8.13598 10.4875 -5.87725
O -8.01037 -4.13551 -7.52812
O 8.55116 -2.0527 -0.436741
O -5.20756 10.3332 5.60918
O 2.37931 -5.30879 -2.29877
O 5.73405 5.14908 0.665208
O -1.35392 6.70996 -8.40598
O 1.77922 4.45813 6.7604
O -1.99069 -4.14329 7.6754
O 5.80063 1.93624 -7.6312
O 8.24166 10.2967 6.13655
O 2.036 8.133 -4.97778
O -5.11273 -6.99513 -0.771943
O -7.55726 -0.548338 5.58232
O -2.89598 -7.3782 -3.66706
O -7.27302 6.4004 -4.55291
O 4.77938 -0.234345 -7.48843
O -8.80297 -2.05603 1.52468
O -2.67987 3.56927 -5.96406
O 3.97736 -7.59715 1.694
O 8.70309 7.22343 6.26579
O -9.23075 -2.02468 -8.79018
O -2.96489 -2.51502 -5.83271
O 5.68387 10.3876 -2.32557
O -2.42416 -6.05466 5.92683
O -3.57422 3.68977 1.55979
O -5.85885 9.56736 -6.9301
O -10.1591 9.8098 6.13762
O -1.84883 2.89411 -8.26309
O -6.48607 -9.06136 2.44241
O -10.4687 -10.4832 -8.93023
O -4.11427 8.15349 4.94068
O -1.34644 -3.33827 -1.94273
O 3.64368 5.76059 5.90555
O -0.132646 -0.540881 5.98265
O 9.01028 -2.56991 -2.93136
O -7.95664 -4.69795 -2.65397
O -4.35102 -8.03067 -7.67013
O -8.57843 -1.89471 -6.37907
O -9.59623 -8.85706 -0.463767
O 3.19048 7.96536 1.28237
O 8.93884 -7.26485 7.12002
O 2.3155 2.11481 5.66545
O 1.70214 1.56188 3.04755
O 0.450661 4.52564 3.62878
O 7.69915 3.79475 -4.79191
O -9.41612 0.619936 -9.01238
O 8.53722 -4.67564 7.239
O 8.61896 1.40846 -5.40565
O -10.1239 -8.72862 5.9399
O -1.65654 -8.82678 1.98494
O 8.61138 1.94284 1.90463
