591
Atoms. Timestep: 1790001
Si -4.71875 -5.54082 10.5525
O -4.07526 -6.11126 12.0016
H -3.52035 -6.88029 11.9453
Si -8.36935 2.34656 -9.42397
O -8.2248 2.99127 -10.9464
H -7.46277 3.54269 -11.0796
Si 1.25323 -2.4906 8.66154
O 2.02348 -3.59132 9.71821
H 1.51998 -3.7461 10.5088
Si -1.24058 -1.51248 10.3172
O -0.896364 -1.86219 11.9504
H -1.24708 -1.23398 12.5708
Si -1.15517 4.26718 -8.19275
O -1.85746 3.24081 -9.47266
H -1.393 3.29621 -10.2995
Si -9.22209 -0.727271 -9.51444
O -9.24286 -1.31643 -11.1063
H -8.82604 -0.798984 -11.7852
Si 6.02557 6.03978 -9.77207
O 5.98072 5.2692 -11.2412
H 5.35902 5.60195 -11.8778
Si 5.52756 9.12402 -10.257
O 5.5709 9.56541 -11.8988
H 5.27025 10.4503 -12.0693
Si -7.95534 -5.55473 10.6475
O -8.53459 -5.95512 12.1247
H -9.39857 -6.35001 12.1147
Si 1.29565 5.94348 -9.05552
O 1.7303 6.13966 -10.7097
H 0.98612 6.28722 -11.2815
Si -5.11484 7.54421 -5.67043
Si -0.755385 -5.27574 4.87739
Si 1.07505 8.67796 -7.48323
Si 0.199295 -5.80385 -8.45059
Si 4.01642 -3.64246 4.47189
Si 0.370819 1.89359 4.42376
Si 1.38455 2.1746 7.44063
Si -5.85224 0.531952 -5.74299
Si -5.6881 -2.10349 2.00427
Si -6.82065 -1.15949 8.85462
Si -8.06967 -0.0418146 -1.16584
Si -1.07319 10.4396 -6.14941
Si -4.19952 -7.25838 -7.5108
Si 6.97179 -0.191265 -2.01824
Si -4.7598 4.0879 4.29155
Si -8.53931 1.1118 -4.11798
Si 1.20661 -4.60611 -4.29237
Si -8.32332 -7.97002 -4.66007
Si -4.14869 -2.57648 9.63419
Si -8.712 8.9317 -3.45543
Si 10.4831 -9.85193 -3.37972
Si -4.45628 8.12383 6.2498
Si -6.95855 7.90514 4.481
Si -4.03595 5.38052 -3.99351
Si 9.60746 5.02382 -3.09553
Si -4.98503 0.62257 -0.987315
Si 8.81198 6.44999 -0.431253
Si -4.53024 -9.36317 1.94397
Si -4.05083 -9.96841 7.27243
Si 3.61844 7.64588 6.45639
Si 7.44599 -8.33645 -7.42533
Si -3.13517 -3.86913 -6.05721
Si -5.59458 -5.55048 -5.33022
Si 8.35665 -6.49967 3.24044
Si 6.26474 5.27941 3.39841
Si 6.80613 8.6937 -0.845273
Si 9.28214 -1.55878 -7.68792
Si -4.82701 -4.79471 2.67937
Si 8.81815 -2.45645 8.9506
Si -5.20994 6.45788 2.13308
Si 9.77844 0.864047 -5.65346
Si -1.2474 -0.70012 -7.4389
Si -3.37117 -7.36347 8.29148
Si -2.62253 -6.57622 -1.22492
Si 1.13648 -2.88632 5.63026
Si -3.86825 -3.11749 6.44928
Si 8.22357 -8.32511 -4.60104
Si -1.61464 -5.33074 -3.89881
Si -2.87402 0.0840227 -4.76168
Si 3.55896 -2.69252 -3.83971
Si -1.15936 1.19258 9.11149
Si -3.50764 -2.19559 -8.57491
Si -1.09164 5.43057 -3.66666
Si -9.53316 6.32455 4.03581
Si -3.99716 -9.26089 -2.32972
Si 3.94311 4.77751 -7.70161
Si 8.61445 6.92172 -5.4085
Si -0.926357 2.36035 -3.95602
Si -9.72202 -3.51191 0.938904
Si -6.5834 -1.73086 -7.92095
Si -6.34189 -9.17131 -6.85207
Si 4.75169 8.1471 3.71812
Si 7.69896 -2.53616 -4.08805
Si -2.95599 8.13863 3.4283
Si 1.23094 7.12404 -4.70382
Si 8.72574 5.8493 -8.14928
Si 7.24205 -9.77809 0.848292
Si 7.78995 -6.78816 0.256833
Si 2.47282 -7.48843 -4.98941
Si 1.41267 -9.04681 -2.64257
Si 0.635657 -2.90802 1.4815
Si 8.01245 2.30128 -3.26022
Si -3.31882 -0.182659 1.56312
Si -4.73088 3.57873 -1.39357
Si 9.17158 2.02053 2.36897
Si 4.52257 -8.89356 2.06632
Si -4.61609 -6.10556 5.66798
Si -7.17688 2.21488 5.06275
Si 1.74514 -0.280798 2.8674
Si 1.05645 9.15373 5.76282
Si 4.44998 3.30375 -0.614962
Si 7.93453 -4.96274 7.24711
Si -8.63861 -4.38481 6.43428
Si -7.74154 -0.422344 3.54239
Si 9.25673 9.5823 2.67852
Si 8.43275 6.99117 4.28328
Si -1.56276 -1.66253 5.09205
Si 6.00539 -1.77019 0.414418
Si 4.21986 8.25805 0.666939
Si -3.21881 3.00168 8.2099
Si 8.13145 -0.571041 6.75237
Si -3.91264 5.08938 -6.94203
Si -9.96315 3.33884 4.4111
Si -6.92126 5.38655 -0.236991
Si -9.16253 -10.2685 1.46119
Si -0.164826 9.33775 -3.24825
Si -9.26411 -2.99978 9.30537
Si 3.41095 -10.3933 -8.40577
Si -1.638 8.62947 -0.727626
Si -7.52608 -3.58697 -5.53891
Si -6.17808 3.10955 -7.40417
Si 4.04633 -0.616624 -1.52917
Si 5.99653 -1.47855 8.69444
Si 6.17416 8.3823 -3.98528
Si 8.41518 2.22751 5.39043
Si 2.95154 -10.1081 -0.219822
Si 5.29354 -6.49577 3.90538
Si 7.88883 9.91962 -8.41268
Si 1.59587 -6.83276 4.05884
Si -3.39515 -1.83932 -2.42556
Si 10.4814 3.44844 -7.33768
Si 7.13772 4.01308 0.759936
Si 4.49991 -8.31108 6.54993
Si -4.49714 9.42853 -0.261963
Si -5.28284 -6.6208 0.407541
Si -1.22977 -1.31364 -0.403776
Si 5.50051 -7.02591 -4.49872
Si -2.19307 3.73938 0.561375
Si -9.27219 6.56113 0.861684
Si 6.46854 -2.71851 -7.11149
Si 0.944581 -3.04563 -7.16789
Si -1.8036 -9.96421 3.09607
Si 7.04022 -9.54412 7.03775
Si -9.96468 -0.376421 1.4141
Si -2.94497 5.57491 6.60149
Si 3.52726 1.96909 -6.37937
Si 2.46807 -6.25118 7.13791
Si 5.34421 -4.77818 0.155867
Si -2.69472 -5.05945 -8.79181
Si 2.65172 5.54831 0.751934
Si 10.1008 -5.531 -1.1334
Si -5.70645 -3.86481 -3.09346
Si 10.3329 -3.44345 -5.48835
Si 5.75263 10.3929 -6.33461
Si 6.49363 8.64271 6.0568
Si -1.31449 -7.45997 -6.29774
Si 2.46947 1.21204 0.116955
Si 0.251192 -7.15038 -0.430379
Si 5.76479 -5.9073 -7.5285
Si 8.23904 -2.94208 4.7368
Si 2.37937 -5.46306 1.22565
Si 4.18695 0.202703 4.95087
Si -2.7931 0.5301 6.73045
Si -6.47871 -8.37177 6.19069
Si 4.14458 6.09442 -4.77716
Si -8.37688 3.9988 -5.33481
Si -5.6498 1.33781 7.65747
Si 4.93668 -4.15937 7.25536
Si -0.244838 5.8054 -0.605276
Si 2.81819 -9.73522 4.42139
Si -2.5123 2.28545 3.29482
Si 1.68675 4.63877 3.67259
Si -9.50423 -8.39013 -0.808391
Si -10.4387 -4.42563 3.76697
Si 4.94193 3.16694 -3.80235
Si 5.85427 -1.6881 3.32325
Si -1.03726 -9.76583 6.11449
Si -8.39452 5.86568 -3.02013
Si -6.73014 -7.6905 -2.0224
Si -0.292205 1.693 -0.945195
Si -6.59303 -2.18878 5.84537
Si -7.67488 9.09208 -6.4174
Si 8.85123 -9.20797 4.64493
Si -7.03168 -10.0121 3.77582
Si -2.08601 -3.63456 2.80685
Si 10.4333 8.1616 -7.47994
Si 2.8999 -7.27951 -8.16503
Si 10.2319 -6.01619 -4.18382
Si 3.00734 4.68154 6.54982
Si 3.70693 -1.29332 -6.75065
Si -7.12899 -2.97829 -0.573064
Si 9.48015 -7.84882 7.23994
Si 0.422148 1.83762 -6.77898
Si -0.669157 6.57654 4.64932
Si 5.38584 3.15207 5.50466
Si -0.50018 -6.96168 7.3983
Si 5.83416 -4.42826 -2.9329
Si -7.59739 8.91095 -0.560533
Si 3.3608 -0.208528 8.03805
Si -8.59543 -7.18915 8.04841
Si -4.01055 10.4838 -5.21929
Si 0.0212349 -10.0364 0.697575
O 1.92563 3.72914 7.31418
O 6.97162 -6.94612 -8.03604
O -9.93634 -6.82295 -0.843551
O 6.84962 9.59722 -7.23545
O 10.2421 -2.61712 9.73799
O 1.02942 -6.47185 7.85846
O 8.68133 8.0753 3.09476
O -7.80152 5.20391 -4.35121
O 0.0108562 -2.19196 0.156821
O 3.76804 2.09812 0.125313
O 8.01902 -9.46642 -8.42996
O 5.84025 9.03683 4.60586
O 6.04324 -3.38546 0.684703
O -7.23438 -9.09621 5.007
O -4.77519 2.59328 8.2734
O 7.0406 9.87659 6.88507
O -3.34786 -2.58273 -7.01534
O -4.03168 -2.84463 8.00667
O -0.926518 0.140193 10.2355
O 6.17878 -9.13577 -6.74567
O -0.670801 9.70787 -4.71094
O -2.43976 4.93194 -7.59146
O 7.38214 -1.98243 9.48694
O -8.48654 7.71197 0.088521
O 0.0105493 -1.71618 5.39408
O 3.70789 0.356724 -6.80723
O 6.18495 -1.12717 1.828
O 2.60978 1.22187 7.97644
O -8.85013 0.831871 -9.46546
O -7.31357 3.65272 -6.45723
O 2.40184 -3.73357 -3.68709
O -1.23389 3.88206 -4.02574
O 5.10293 5.22056 -8.74438
O -5.84405 6.22013 0.692534
O -5.19179 -9.31593 6.41146
O 1.70316 -8.55492 -4.13586
O 10.4192 2.83004 3.01831
O -4.6906 2.04166 -1.80111
O -4.51027 9.45744 7.21475
O -0.107981 5.14595 -8.9556
O 4.92301 -3.55324 -3.87773
O -8.03286 -8.50589 -1.32253
O -4.61036 -4.31708 -5.80647
O 4.27237 10.3626 -7.03346
O 4.42458 3.87388 6.58558
O 2.31889 5.17076 2.30973
O -6.50245 -3.14641 -4.34525
O -7.88256 9.19124 -2.09381
O 5.57909 6.76917 3.42574
O 8.78128 -6.3542 7.17607
O -3.03671 -9.18554 2.50874
O 5.08927 8.18598 6.6976
O 5.4725 -0.568718 4.38824
O 1.8126 10.0868 4.65742
O 4.73255 4.71385 -4.17423
O 2.53122 -3.19381 4.88186
O 3.72263 -9.80563 3.13361
O 3.56429 -1.8632 -5.24423
O -4.48192 0.10348 -5.08223
O -4.41969 -2.98281 -2.8286
O -10.3367 9.71761 2.0223
O -0.832489 -8.97511 -6.10404
O 1.38131 7.99516 -6.04046
O -5.6205 1.83633 -6.60955
O -9.47124 -6.75133 -4.65233
O 7.23014 -1.2019 -3.27206
O 3.81513 -9.51762 5.6909
O -5.45228 -8.57959 -2.30844
O -2.68343 -7.65695 -7.0757
O -8.20073 -9.83917 2.65472
O 6.2454 -6.11595 0.272179
O -1.05186 9.93032 0.0423053
O 7.55143 6.15426 -9.28796
O 4.99632 7.33769 -4.24172
O -6.02703 -6.91266 5.8051
O -6.50739 0.486594 8.81561
O -5.71002 -3.45374 2.87028
O 7.28575 -3.76684 -3.1389
O -7.54815 5.99299 -1.68488
O 8.20133 -8.79476 7.77596
O -2.52103 -10.0074 6.78606
O 0.365484 5.57957 3.99318
O -9.43557 -4.44549 5.04164
O -5.98205 8.85271 -0.407571
O -9.3488 4.80816 4.32903
O 9.54205 -3.19397 3.94723
O 1.49266 -6.3374 0.181879
O -2.93175 -8.1178 -1.80291
O -7.3384 -7.43973 -3.50664
O 7.01149 9.46302 -9.69495
O -6.57451 0.463353 -0.837542
O 3.64894 7.69335 4.7512
O 9.30606 10.4055 4.04516
O -7.48158 -8.36002 -6.01571
O 7.07551 -2.67107 3.69751
O -0.205072 9.61372 -7.21979
O -3.66139 -7.07529 6.69209
O 9.98918 6.66347 4.57726
O -2.3268 -2.69488 6.02081
O -7.10683 -2.94832 -6.95033
O 2.31331 8.6252 6.67913
O 4.54262 -2.6301 3.39818
O -6.3224 -5.52373 10.5921
O -3.71283 8.3109 4.84008
O -10.1191 -7.70795 7.93561
O -5.5902 -9.58147 3.10671
O -3.88415 -6.15143 -8.64049
O -0.13328 -4.8575 -3.53179
O 2.08336 -6.1777 2.65921
O 6.20113 -4.33637 -7.56216
O 10.0745 2.06727 -6.60955
O -8.38384 7.18825 4.71469
O 9.74278 -8.54933 5.82539
O -9.84332 5.07944 -2.8973
O 8.70063 -8.06764 3.55501
O 3.71363 -1.5797 -2.6886
O 9.24069 -2.60572 -4.55021
O -0.287921 2.097 -2.5282
O -2.60142 5.98331 -3.72041
O -0.994745 -5.82781 6.36582
O -2.2321 -0.293258 5.50112
O 7.53539 7.55737 5.52874
O -5.25302 -9.74553 -5.80394
O 8.59173 -6.1265 -0.929092
O -0.720543 -3.63351 2.01508
O 6.32547 -5.10638 7.40991
O -5.97061 7.8463 5.66114
O -0.659312 7.38944 -0.402063
O -0.22501 -6.66863 -7.21039
O 3.91561 -5.16535 0.744279
O 4.66109 -0.565894 9.02272
O -4.12174 -6.40564 9.32424
O -1.19591 -6.51356 -0.558103
O -9.43257 6.70507 2.45388
O -2.26892 2.33178 9.31727
O -3.83111 -8.88362 8.52873
O 8.18311 -1.58244 5.54322
O 4.12784 3.2132 -7.24451
O -5.93583 -2.53299 0.427692
O 7.74097 -2.03835 -7.88343
O -4.23344 -10.5063 -1.38671
O -8.19436 10.0686 0.325129
O 9.0265 -7.06372 -4.03739
O -1.49025 -6.59698 -4.90267
O -6.53134 7.95697 -6.29168
O -2.48111 -5.72131 -2.58676
O 4.80125 -3.48773 5.85757
O 4.33267 8.6175 2.27175
O -0.239778 0.569049 -7.59504
O -4.48413 4.45509 -2.73419
O 10.3428 -5.22531 -2.72433
O -7.41265 -8.1328 7.52688
O 5.68328 -8.77054 7.3975
O -8.28398 5.33858 0.606282
O -3.16572 8.4905 -0.454447
O -8.33598 -6.70853 9.5338
O 1.20439 -3.15475 7.23044
O 5.43601 7.53965 -9.99062
O 10.0228 -2.74056 -6.90323
O 5.83581 -5.91722 -3.39957
O -2.66107 10.464 -6.18476
O 6.28093 4.57241 2.00985
O 5.66301 7.99819 0.109621
O 2.48113 -7.60344 -6.61527
O -8.57726 -5.83579 7.17889
O -2.92083 4.48707 7.69546
O -5.08883 6.56958 -4.37267
O -9.69558 -9.03912 0.630371
O 7.4602 7.68042 -4.62706
O -0.00337924 1.75164 -5.173
O -3.92705 4.84324 5.45224
O 5.92424 -9.48407 1.69253
O 0.856045 8.1419 -3.49142
O 9.6046 -5.65402 3.78238
O 8.86578 1.48233 -4.49124
O 6.97371 10.2415 -0.429419
O 3.25325 6.1802 6.94603
O -1.40642 2.55105 -0.258919
O 1.06698 7.38771 -8.40879
O 2.99869 -0.0772787 3.899
O -2.73619 -1.92272 10.1211
O -5.10053 4.2389 -7.54331
O 2.2998 -2.12219 -7.32594
O 2.19009 -1.22265 8.43436
O 10.2649 6.40027 0.281295
O -6.5662 -3.82959 -1.78095
O -1.33892 5.05182 0.292065
O 4.26704 -6.33617 -8.10097
O -8.06154 9.41846 -4.84245
O 5.01231 -7.23083 5.40931
O 6.01992 3.41374 -0.256266
O -3.91514 7.40721 2.37893
O -4.94131 -6.84895 -6.05819
O 0.59412 0.585919 3.5181
O -1.24181 -5.62706 -9.26829
O 9.08984 5.69789 -4.47031
O -0.149908 -2.16175 9.34916
O 2.55902 4.76158 4.97964
O -6.21227 3.5019 4.78292
O -6.31733 -0.566775 -6.86421
O 4.82529 -7.47782 2.72772
O -6.29127 -6.69468 -0.860204
O 9.11809 -9.56467 -4.05328
O -4.21961 0.569405 0.42677
O 4.59039 1.78822 5.07742
O 10.3726 -4.36991 -0.0669277
O 3.57916 -5.06602 7.42533
O -7.1235 0.667706 -4.78234
O 8.01887 6.3476 -6.7726
O -4.49297 -5.78204 4.02608
O 8.20208 2.88437 1.38712
O 0.187221 1.92447 8.4429
O -6.08311 4.07813 -0.656548
O 9.02706 5.98883 -1.97812
O -1.20666 2.18671 4.28616
O -5.00221 -2.3568 5.49282
O -9.15927 0.116072 0.0957078
O -4.38224 0.311407 7.15741
O -2.74458 2.13896 6.8542
O 8.59473 -3.91284 8.28358
O 8.39784 -8.24257 -6.18556
O 4.36657 9.90942 -9.48938
O -5.41212 -5.35696 -3.6938
O -1.94837 -2.20507 3.6138
O -2.30686 1.50663 -4.07264
O 8.53604 0.917738 6.32803
O -9.79684 0.453763 -4.88251
O -7.90825 -1.33019 -8.76586
O 2.0983 -6.16785 5.48004
O -7.05863 0.914562 4.02185
O 6.69442 -0.699429 7.4597
O 9.75216 3.10276 5.3745
O 1.64772 -6.53836 -8.82603
O 5.50858 4.2798 4.42563
O 4.45469 -5.13431 4.05641
O 3.2043 -8.83106 -8.76751
O -2.06591 -0.152489 -6.08343
O -2.12917 -0.876426 0.876529
O -8.80556 7.36632 -3.49597
O 7.84495 -8.35156 0.318255
O -6.28606 7.14266 3.12241
O 9.08459 -1.31133 7.83185
O 5.70115 -6.29718 -5.92566
O -7.15652 10.458 -7.19909
O -4.20788 -4.6907 6.30937
O 9.28594 9.16182 -8.07671
O -3.86994 -6.26414 -0.319749
O -4.4013 8.91949 -5.15186
O 3.77524 -0.386993 6.43916
O -5.06033 -8.10965 1.01015
O -3.66376 -9.81579 -3.77917
O 0.232223 7.86647 5.16552
O 6.98424 -2.63858 -5.61215
O 1.71232 -4.04545 1.21545
O -1.55159 -9.6473 4.62593
O -4.37599 -1.2576 2.17529
O -1.76561 7.10293 3.71522
O 6.98484 -1.09685 -0.680714
O -8.53842 0.632128 -2.57543
O -9.04797 8.55192 -7.21084
O -8.72689 2.39375 4.85018
O -0.281209 -1.97248 -7.14069
O 2.17566 0.406004 1.48502
O -10.45 -9.13697 -1.94839
O -1.95789 -4.76336 3.91567
O -5.52157 -5.70281 1.62918
O -10.1557 9.65929 -3.20664
O -0.517096 5.43859 -2.15127
O 0.463172 -10.3414 -2.61593
O 3.29947 -7.6393 7.27899
O 3.65837 4.58467 0.0303842
O 7.73106 5.64995 3.81885
O 1.79559 -6.0535 -4.68838
O 0.623919 -4.25946 -8.20555
O 0.249553 -4.01894 4.9435
O 6.41383 8.63433 -2.38286
O 5.07619 -1.95389 -7.29872
O -8.2188 -3.64411 0.319973
O -2.25024 -2.09229 -1.30911
O -2.29102 -4.16874 -4.76247
O -2.29546 3.40436 2.09909
O -9.77281 -4.22013 2.32794
O -7.12025 -5.14337 -5.5679
O 1.14239 1.95395 -0.260115
O -0.64629 0.102967 -0.890289
O -1.30941 8.87195 -2.29149
O 9.77981 7.81114 -5.97401
O 4.00162 -7.48194 -4.46138
O 8.06625 -4.14562 5.85404
O 5.94462 9.80384 -4.82141
O -3.46498 -4.07076 2.10005
O 6.98441 2.88995 5.82287
O -3.95576 4.58137 -5.40908
O 4.20627 5.78965 -6.3769
O 3.67482 -9.02674 0.722826
O -6.67759 -1.44456 7.26017
O 1.49859 -10.4025 0.370558
O 2.76387 0.172652 -1.05844
O -4.9547 5.0181 2.92854
O -3.62973 6.96951 6.95899
O -2.40186 9.52888 3.06625
O -7.53769 -1.43309 4.79964
O -9.11677 -3.44654 -5.21194
O -1.73123 0.211594 7.9013
O 6.65402 -8.11814 -4.32129
O 6.85918 -6.2675 3.68566
O 8.43411 -6.2799 1.61076
O 9.24813 -0.266861 -6.62754
O -2.7487 0.876168 2.57408
O -2.6769 -1.13285 -3.69587
O 10.0284 6.77539 -8.23445
O -9.22246 -0.299538 2.90642
O -1.53061 5.93839 5.8971
O -7.81689 -1.65247 -1.2095
O -9.13347 -3.49232 7.76039
O -3.18728 -3.64511 -9.23907
O 1.94577 2.10991 -6.73825
O -4.20707 6.69869 -6.78581
O -6.94485 9.46582 4.10575
O -0.064149 6.13572 -4.68162
O -2.43971 -4.81894 -7.16354
O -10.1332 -1.95025 1.16306
O 6.51925 2.73285 -3.71989
O 5.31415 -2.90399 8.17898
O 2.55149 6.30909 -4.43323
O -8.23839 -1.7438 9.36533
O -0.114087 -8.46168 0.365175
O -5.26361 -8.43707 -7.86256
O 2.09288 9.75534 -8.11855
O 5.40966 0.22165 -2.00004
O 7.89797 5.31458 0.217165
O 8.88475 3.59222 -2.90228
O 7.43318 -9.30505 5.39306
O -5.12227 -1.92409 -8.71259
O -9.50104 3.0789 -8.49756
O -6.57738 1.79809 6.48435
O 2.08087 -8.32698 4.14489
O 1.2107 3.05703 3.69978
O -2.33613 -1.14394 -8.55184
O 1.00543 -3.7908 -5.72528
O -9.74457 4.30703 -6.1822
O -5.55592 -1.82331 9.69282
O 0.914532 1.76211 5.95359
O 4.11605 2.33598 -4.88678
O 4.40181 3.13487 -2.25905
O -1.79078 -7.14822 8.43271
O -0.39507 3.14358 -7.31632
O -8.65652 2.66187 -4.37467
O 8.33326 1.85065 3.78383
O -3.87492 2.76973 3.99779
O -8.57551 -4.20502 10.2343
O 7.87226 1.09639 -2.19331
O 3.16009 7.04642 0.581397
O 2.64531 -9.55981 -1.6931
O 1.2213 5.4526 -0.0577984
O 4.54165 -1.41086 -0.212274
O -0.409414 -10.0144 2.28562
O 8.25569 10.3605 1.76395
O -7.22085 -3.64472 6.08749
O -3.56252 3.79882 -0.296485
O -4.44499 10.3171 1.09528
O -9.32841 -9.08385 -4.18908
O 3.74672 9.51651 -0.13075
O 1.27674 -1.81024 2.43432
O -7.00143 2.61516 -8.69339
O 8.14568 7.84265 -0.500421
O -4.27499 -4.04978 10.3143
O 9.21217 4.29942 -7.86508
O -4.32465 -0.629175 -1.80111
O 5.30902 -4.41065 -1.41918
O -6.92962 -1.1255 2.4035
O -0.0244658 10.1088 6.39378
O 9.8146 0.687214 1.6145
O 9.87939 -4.99003 -5.31365
O -0.414872 -8.37173 6.66829
O 10.3057 -1.15595 -8.85016
O 0.016224 -6.54096 4.15416
O 2.46176 5.16265 -8.28574
O 0.787735 -7.7688 -1.90572
