588
Atoms. Timestep: 1790001
Si -8.41226 0.698274 -9.87458
O -9.87698 0.734872 -10.6588
H -9.86597 0.457204 -11.5673
Si -4.03773 2.3776 -11.2307
O -3.54943 2.38655 -12.8559
H -3.91094 3.09996 -13.3686
Si -9.44042 1.83133 9.04481
O -8.80498 1.7738 10.5679
H -8.30132 0.991791 10.761
Si 1.82862 -6.20473 8.43247
O 2.78757 -5.99713 9.80479
H 2.49436 -6.46136 10.58
Si -8.28321 -0.894687 8.03046
O -7.77467 -1.44463 9.55482
H -7.43379 -2.33099 9.58063
Si -10.2749 -1.15298 -8.60216
O -10.4596 -1.87098 -10.1563
H 9.70972 -1.76284 -10.5743
Si -5.6001 -0.317974 -10.9412
O -5.47614 -1.13194 -12.3901
H -5.27637 -2.06033 -12.3642
Si 6.73078 -5.11384 8.94207
O 5.93635 -6.16767 10.028
H 4.98659 -6.15524 10.0102
Si -9.09707 4.40169 4.56368
Si -2.64428 9.18858 3.61423
Si -1.52452 -0.650543 3.17814
Si 2.62557 -0.253795 3.14328
Si 8.84207 0.780677 7.9882
Si 4.2741 -8.98038 4.14912
Si -6.70477 2.72949 -3.68247
Si 0.929951 -4.11662 3.9386
Si -0.427359 4.54786 -4.66183
Si 7.19746 7.32753 -1.34835
Si -0.348873 7.57621 -3.86144
Si 8.52067 0.309405 -7.00916
Si 8.53915 -4.96216 -6.61702
Si -5.89033 -6.62528 5.40471
Si -2.70507 3.75595 0.264035
Si 3.81745 7.14982 5.4267
Si -1.63584 -5.12958 -0.943042
Si -5.97682 5.5456 -2.90904
Si -0.829259 9.77236 1.29062
Si -4.2736 6.29157 -0.331106
Si 7.48189 3.11842 -6.6834
Si 6.51407 -8.71344 -5.89951
Si 7.821 -2.17846 -5.2832
Si -4.60393 6.59077 -5.43525
Si -5.48775 -4.81587 -7.7797
Si 8.68908 2.26937 5.4142
Si 5.09162 -2.5922 7.86372
Si -3.93817 -6.33205 0.711191
Si 2.72914 4.14794 -4.24321
Si -1.56354 6.35983 4.54339
Si -0.946079 -4.60228 8.04354
Si -8.69382 6.87536 -3.58052
Si 7.97788 9.37766 5.28556
Si -5.52486 4.93976 -10.1782
Si -10.2587 -9.44204 4.02843
Si 1.92478 2.89266 2.84732
Si -9.81551 -4.04997 -7.61741
Si 4.58596 2.45613 5.99975
Si -8.92087 -7.25495 5.46977
Si 0.724424 7.32219 -7.89006
Si -8.19487 -0.539154 3.19027
Si 4.93025 -4.53326 3.44735
Si -10.1052 1.81184 3.32248
Si -8.42736 5.52666 0.384494
Si 5.67717 -3.84108 -3.9793
Si 1.33269 -9.93575 -3.29289
Si -2.87413 9.02244 -4.54013
Si 5.80982 -8.9194 -2.76368
Si -8.57145 -0.602136 -4.25692
Si 10.2246 -5.06996 -2.1562
Si -0.1099 0.230345 -2.53372
Si 5.17303 -0.0282106 -0.888511
Si -1.50391 6.35088 7.73496
Si -10.3562 8.62252 4.01711
Si 5.713 -5.78021 -6.26817
Si 9.74362 -5.62604 8.55171
Si 5.38493 -0.0125403 2.19657
Si -7.81811 -5.08062 -5.75566
Si 1.01206 0.923944 7.92172
Si 5.27826 8.94958 -3.19776
Si 10.2475 1.34387 0.272445
Si -6.98832 2.769 -6.59112
Si -6.22859 -4.00784 -3.17398
Si -3.18309 -0.442783 5.4912
Si 8.99151 -9.33553 6.71297
Si -8.64921 -5.43785 -0.163123
Si -4.13232 1.02999 -4.16636
Si -0.248544 3.65726 7.31616
Si 1.52224 -9.16728 5.15968
Si 1.36004 -6.24582 -0.760291
Si 10.3271 -7.5328 -0.643514
Si -3.46348 0.779336 1.18682
Si 1.46352 8.02907 2.53332
Si -2.68786 -9.85539 -6.68611
Si -1.13571 -1.50479 -4.86361
Si 7.43551 2.21537 -0.895695
Si -10.3256 1.79671 -5.10293
Si 5.89589 4.7957 0.0486381
Si -8.15586 2.65895 -1.00042
Si 9.54826 -7.81803 -5.88378
Si 4.26714 9.09092 3.09426
Si -0.211393 9.67063 -5.79113
Si -1.3344 -8.75835 -2.07885
Si -5.93335 -6.51407 -1.58976
Si 10.0029 -2.38617 -3.26174
Si 7.18646 5.26579 2.7508
Si -6.74202 8.1758 -7.11284
Si 7.24135 -7.59883 -0.416506
Si -2.14302 2.39313 -8.7222
Si 3.11698 -7.41779 -3.08938
Si -3.96781 -7.02807 -5.99922
Si 9.27994 6.37665 -3.37439
Si 10.4385 10.4599 -1.23944
Si -4.30991 4.21974 -7.30472
Si -3.9386 -2.03004 -3.46683
Si -6.22463 -1.22725 5.68325
Si 4.13969 0.456809 8.11958
Si -1.97551 -6.1402 -3.71057
Si -4.51339 6.86664 7.24184
Si -7.80632 -10.1912 -5.56506
Si -4.91934 -3.57036 1.86163
Si -1.98211 7.05559 -9.06761
Si -2.43394 -7.31202 8.12095
Si 3.25402 -4.95147 -5.02149
Si -0.0994691 -8.2429 0.635205
Si -4.13824 9.20915 -8.66403
Si 4.82833 10.0288 0.366874
Si -4.06266 7.50149 -11.2264
Si -4.95451 -8.85681 7.53836
Si 6.39023 2.44251 3.65594
Si -0.427375 9.11059 7.95941
Si 6.36376 2.60159 8.25661
Si 3.66942 7.36072 -7.0708
Si 10.2891 -10.2406 -4.42045
Si 5.03576 4.83847 -6.25634
Si -6.66558 4.57757 2.75118
Si -5.55081 9.04802 0.186766
Si 7.68026 9.79213 0.228801
Si -0.0113427 -2.63697 -1.32067
Si 8.91067 8.40795 -5.91576
Si 10.462 4.08422 -7.34751
Si 8.41773 4.71853 7.41515
Si -9.8974 -8.29832 8.38987
Si 5.97962 9.21475 -6.27634
Si -1.38308 7.49839 -0.888619
Si -2.75116 0.0272628 -6.84303
Si -6.54238 1.62989 1.48333
Si 2.77242 1.639 -2.15781
Si -2.2816 -7.19428 4.96115
Si -7.35854 -1.64011 -1.5301
Si -8.37357 8.35633 -1.09535
Si -3.94689 10.4652 -2.14143
Si -4.99374 -1.79046 -8.35615
Si -2.55723 2.6626 5.17139
Si -10.3522 -1.69954 -0.265946
Si -5.58564 9.78825 3.20655
Si 7.13937 -2.18298 3.52136
Si -10.3998 -3.18028 7.06394
Si -9.45322 7.04046 -6.65084
Si -0.853315 3.91975 2.82593
Si -0.750254 4.61479 -7.6951
Si -9.51546 4.83848 7.81109
Si -4.57942 -8.18102 3.14499
Si -7.70204 10.4799 8.01143
Si 2.82415 7.13739 -3.96548
Si -1.96804 2.75644 -2.54432
Si -4.43049 5.01922 4.83451
Si 8.13371 -9.47803 2.80507
Si 3.64082 -4.97896 0.66684
Si 0.700064 -0.439363 5.31482
Si -1.85109 -4.30328 5.06502
Si 2.24894 4.35324 5.60408
Si 6.71891 6.65028 5.71108
Si 4.54669 -8.00659 1.09983
Si 7.72772 -6.55668 6.46612
Si -4.65058 -3.74941 5.05357
Si -9.54167 -4.53691 4.36229
Si 5.64263 -3.19229 -1.00691
Si -7.95176 -3.42524 2.20905
Si 6.54181 -7.04958 3.8024
Si -8.28917 3.74863 -9.07816
Si -0.93482 -1.47076 7.54573
Si -8.62916 -7.73895 -7.19523
Si 0.221502 -8.95722 8.05302
Si 1.27137 6.37995 -0.00117375
Si -5.83167 -8.5869 -3.79558
Si -3.23578 9.70876 6.45497
Si 0.414214 -4.03135 -4.20299
Si -7.53554 -0.373272 -7.21511
Si 7.88142 -1.8441 6.49162
Si 10.1741 5.96433 2.38643
Si 3.16964 -4.49076 6.10503
Si 8.4427 3.33812 -3.7075
Si 0.844617 -2.08431 1.63504
Si -4.4113 -1.56325 -0.459379
Si -7.71574 8.88983 5.46995
Si -7.80322 -5.69316 -9.49349
Si 2.79968 8.69891 -1.6924
Si 7.87161 -4.77593 -0.140595
Si 1.33778 8.7078 5.42994
Si -7.31019 7.38589 8.06303
Si 9.47917 -3.71444 1.97507
Si 0.380108 -7.07909 3.38414
Si 2.90375 3.79156 0.0981399
O 9.34692 1.4793 6.6358
O -5.63472 1.57038 -4.09952
O -2.96969 8.07641 -8.28848
O -2.27384 -0.832741 6.83996
O -7.15015 -0.828185 4.43229
O 1.13893 7.79234 4.15886
O 0.831783 10.332 -4.69683
O -8.90364 7.16234 -5.13924
O -4.91649 5.90632 6.05094
O 4.79894 -0.0395009 0.704452
O 6.3518 8.24434 -2.28923
O 8.92838 10.119 -0.710455
O -6.65802 9.4 4.2815
O -10.2364 -9.02356 -0.873791
O -6.3296 -7.61818 -2.65875
O -1.59433 -0.87345 -6.22697
O 6.9215 -8.47509 -1.74275
O 7.62304 5.97642 6.82516
O 4.23311 -5.10834 -6.32938
O 0.567844 -5.253 8.44921
O 9.08934 -2.98909 6.6533
O 7.30151 1.78507 4.81195
O -8.39498 6.12244 8.14282
O 1.66953 6.84643 1.48038
O -9.55671 -1.86919 7.56881
O 6.32935 6.05341 -0.919636
O 7.04487 -5.29635 -7.0879
O 10.3526 10.3984 -2.83074
O -7.15912 0.0275003 -10.4971
O 6.08729 -5.2505 -4.74726
O -3.24255 -8.05429 4.10017
O -9.99575 -2.44149 -7.76869
O 3.75613 8.23485 -3.04101
O -8.49276 6.86496 -0.455087
O 3.98347 -4.3853 2.13857
O 2.48107 2.49991 -0.769431
O 1.28377 7.63855 -3.75653
O -10.24 -7.83191 -6.9726
O 2.92574 2.81624 -3.29805
O -5.73787 -2.74996 5.56205
O -7.95592 -0.925068 -5.73798
O -9.41255 -4.77837 -1.38178
O 0.695106 -8.91084 6.46825
O -0.887556 7.57723 8.59584
O -4.09805 8.32958 6.52996
O -8.73176 -4.57482 -8.6765
O -9.52685 0.316907 3.58585
O -5.09245 -7.65354 -4.8964
O -7.53135 0.54179 2.2155
O 2.82579 5.8514 5.41375
O -9.97352 10.0871 3.64058
O 7.83822 -0.922805 -6.22994
O -8.72596 -9.43299 8.70087
O 1.0411 0.797264 6.31159
O -4.91286 1.10097 -10.9739
O 8.24794 -2.95339 2.7547
O 2.05958 9.94428 -2.34505
O 7.61076 1.58057 -7.13084
O -0.64657 6.14186 -4.46538
O -1.97617 -5.81675 8.53703
O 2.56971 0.711932 8.40878
O -4.59359 9.92607 -0.796316
O -0.286986 -7.30406 1.94675
O -0.115509 -5.59493 -1.0193
O 0.448125 5.7459 -7.59107
O 10.1905 -6.69692 -2.0412
O -7.20013 7.7888 6.50916
O 8.09356 -8.5455 -6.26893
O -2.5972 -5.63047 4.51448
O -1.58008 -7.61897 -3.21709
O -4.3048 -0.487532 -3.64847
O 0.258051 8.87381 2.00187
O 4.9901 2.7293 4.4499
O 9.93837 5.03615 7.88828
O -7.21668 9.44509 -6.15243
O 5.78902 -7.34099 -6.37186
O -9.53005 1.85309 -0.686245
O -3.51447 7.74945 -5.28255
O -7.44935 5.94169 -3.32432
O -0.644099 -5.21214 -4.16237
O 3.86963 9.11336 -0.582327
O -4.73814 -0.600587 5.66347
O -1.18934 -8.30474 8.27352
O -5.51414 -5.22054 -2.37544
O -9.00669 -8.47674 4.38613
O -2.63441 6.94197 -10.4554
O -7.70306 3.7148 -7.61129
O 10.1202 -2.75892 0.818023
O -8.14077 2.20129 -9.60678
O 3.02519 -8.9292 5.16437
O -0.688186 5.33672 3.63451
O 1.30544 -7.75693 8.54482
O -5.58308 8.79752 -8.12495
O 1.9149 7.55149 -1.00126
O -2.59995 9.92569 4.99997
O -4.2017 9.05939 3.38254
O -3.10716 6.34509 7.81726
O 4.12117 -4.8624 4.81481
O 4.03128 0.637897 -1.80858
O -4.83034 7.63528 0.372635
O -9.72526 -6.63229 0.215926
O -3.47833 0.772323 -5.63714
O -5.24939 -5.19215 5.67785
O -7.70248 4.95437 3.91181
O 6.27153 10.2709 -0.190167
O -6.63017 -4.48861 -6.65001
O -1.04482 -3.00385 8.26046
O 10.3344 7.5744 2.80505
O 8.82201 1.78387 -0.199388
O -1.00914 -4.65125 6.42793
O 1.2756 -3.24198 2.6369
O 0.78296 -2.5011 0.0988359
O 9.84589 -9.21538 8.05907
O -9.30436 3.33901 8.51651
O -2.35727 0.333061 2.21333
O 5.08084 -10.4311 -2.80131
O 5.82335 -5.82543 3.09125
O -5.11079 -3.02507 -3.83675
O 4.12471 -3.90291 -4.09895
O 6.01053 1.48431 2.45207
O -4.59207 -5.95815 -7.05285
O -7.01034 1.97995 -0.0671811
O 0.820855 4.35967 6.32095
O 5.06735 1.703 8.73065
O 5.99647 -3.78339 -2.45676
O -5.82263 3.97643 -3.13958
O -6.26581 -9.74339 8.07493
O 4.53033 -1.08659 8.31384
O 3.98776 -3.4395 7.0312
O 9.64578 2.16202 4.20622
O -3.86086 7.78048 -12.7061
O -5.50346 -7.07411 3.91433
O -2.41138 -5.42135 -2.32665
O 5.82583 3.05133 6.82605
O 5.09455 9.34235 1.74152
O 8.63437 5.647 2.1113
O -10.4469 1.93612 1.74648
O 8.58635 6.97038 -2.08947
O -9.13303 2.8423 4.13498
O -6.44635 -1.22569 -7.92882
O 5.62283 8.99567 -4.7506
O -7.65567 -0.734079 -2.88989
O -9.0478 8.27553 4.87995
O -3.87025 -8.04374 8.51503
O -5.19581 -9.60532 3.28346
O -10.1513 6.40949 -3.18934
O 3.33886 -6.37541 -4.30979
O 2.27902 -6.55318 -2.07234
O 1.89855 4.96904 -0.269078
O 2.22749 -8.6676 -3.56007
O -5.32299 4.90844 3.49454
O -6.43455 -3.24747 1.82501
O 3.01635 5.58804 -3.60437
O -1.949 9.55544 7.47367
O 3.27216 3.37829 6.33188
O 8.80639 -7.71159 -0.0398946
O 8.32899 -5.20373 9.22153
O -0.0195308 -9.56587 -2.57697
O -1.11266 -10.2822 -6.59747
O 9.8874 -9.30704 5.38229
O -0.452487 7.51498 -8.97883
O 1.18757 -7.6003 -0.0489122
O 7.75958 2.59493 -2.41876
O -7.81046 2.56397 -2.53822
O 9.06427 -6.25293 -5.70063
O -2.32657 3.62564 -1.28161
O -3.59425 -10.505 -7.85598
O -1.88547 5.66669 -8.26228
O -6.94987 -3.07343 -2.17309
O 4.56306 10.4241 3.87759
O -7.08235 -1.06386 7.01496
O -9.68925 -1.62505 -3.84231
O -4.11875 -10.0342 6.75202
O -8.76977 -0.232526 -8.44672
O -0.822451 3.35568 -8.61011
O -5.44452 3.16683 -6.78761
O -3.13836 -8.27744 -6.52362
O -7.74403 8.93182 8.61352
O -3.87429 4.91903 0.392122
O -0.187263 -9.79553 0.989172
O -4.98354 1.03708 1.6439
O 10.0401 -8.71302 -4.69872
O -4.03294 -7.57646 1.74476
O -0.899645 1.58623 -2.10359
O 2.73167 8.97959 2.56654
O 9.76665 -4.7284 -7.63792
O -2.82099 6.77883 -0.800877
O 1.48168 0.656918 -2.44507
O 9.46475 -0.341327 -8.17376
O -3.18638 1.9916 -3.27419
O 0.0681704 -1.60663 6.23926
O 1.93759 -1.00616 1.93074
O 0.287343 8.38754 -6.65018
O -4.80103 3.69017 -10.8904
O 8.82159 4.85453 -3.50149
O -7.42538 3.0893 -5.06867
O 3.05357 7.3834 -5.49024
O 7.44014 3.83388 8.45502
O 2.09443 3.663 4.20672
O -9.6399 -3.59187 5.68482
O -3.03359 5.77124 4.47267
O -1.3294 8.83945 0.0299273
O -9.17598 0.862474 -4.50824
O -5.88612 9.59294 1.65196
O -3.8887 -2.17097 -1.82509
O 6.92315 -3.50402 -0.0668317
O -0.076216 -0.243998 8.23945
O -9.79699 5.61203 1.26079
O 10.3414 -0.227988 0.234317
O 8.69116 -1.91804 -3.96254
O -5.87541 7.19123 -6.22394
O 4.39461 4.28306 -0.198865
O 0.172918 -10.4955 8.53783
O -9.91275 3.93553 -8.80495
O 7.1335 3.73135 3.14016
O -9.53952 9.30434 -0.649343
O 5.39277 -1.58164 -1.13512
O 4.41754 0.972606 6.57295
O -6.30492 -5.29187 -9.06725
O -10.1751 2.86692 -6.31948
O -7.987 10.1556 6.43644
O 9.16753 -5.98364 7.04486
O -6.91182 -9.52127 -4.4712
O 4.48583 -8.00448 -2.58686
O 7.85983 -10.4424 1.60669
O 1.1913 -8.33763 3.77985
O 10.1762 7.89821 -6.7866
O -9.24648 4.64205 6.18973
O 6.93938 8.23682 5.52959
O 9.80682 2.55921 -3.93245
O 6.95562 5.98516 4.15395
O 3.82187 4.0712 -5.44942
O 6.42608 -8.83491 -4.25052
O -8.50461 -4.42917 1.06444
O 6.13282 5.32678 1.55076
O -3.11677 -3.52223 5.59367
O -8.1213 -4.1857 3.63232
O -7.22128 1.16708 -7.02404
O 10.1907 -4.01606 -3.37667
O 8.94429 7.34438 -4.64538
O 4.36898 -3.98014 -0.367762
O -0.0514207 -2.65653 -4.89222
O 8.50923 -0.724657 7.42668
O 4.17115 -0.439252 3.14013
O -0.232093 -1.09957 -1.72545
O 1.82985 -3.95923 5.2932
O 0.983559 -5.64159 3.51158
O -2.06451 9.92831 2.32314
O -1.75957 3.00722 3.84962
O 10.0479 1.18062 8.96088
O 7.54042 8.14911 -0.00170483
O -5.99718 -1.29341 -0.701053
O -0.741805 -7.25699 4.49259
O 7.31632 -8.12203 2.98683
O -3.58653 -0.202785 -0.0572382
O 1.36013 10.2197 4.9444
O 8.68874 3.73261 6.09534
O -4.24972 -2.46168 0.86556
O -5.03473 6.33501 -3.92997
O 6.58174 -0.990062 2.63422
O 2.01839 -0.822201 4.59822
O -7.48233 -6.64599 5.60984
O 9.65672 0.729717 -5.92658
O -2.52715 -9.81208 -1.79333
O 5.88482 -3.70009 8.81128
O -2.16396 1.00936 -7.92975
O 3.95175 -6.62232 0.62481
O 5.90802 -3.24572 3.75497
O -5.37053 -7.72846 6.51567
O 9.64994 -9.01288 2.92852
O 0.579735 -3.40872 -2.64894
O -9.7993 -6.01577 4.88895
O -3.92359 3.57285 5.2178
O 6.89788 3.54534 -0.19603
O -1.33545 -3.52145 -0.899587
O -4.07435 5.22011 -6.06269
O 4.14393 -9.51271 0.454271
O -10.4128 -6.9392 9.04588
O -4.74705 -9.48649 -3.00979
O -3.52285 9.23409 -3.14327
O -5.38523 5.94006 -1.45261
O 4.27902 -8.3118 2.67313
O -3.00859 1.1697 5.25185
O 6.12538 3.8561 -6.94094
O -5.75748 7.03093 8.27271
O -4.75924 -6.8754 -0.596197
O 6.38289 -2.68592 -4.81988
O -2.9595 -6.21949 -4.9973
O -1.17136 3.72057 -3.57241
O 6.08251 -7.99954 0.638506
O 7.43333 1.38243 8.26136
O -1.52099 3.1056 6.38962
O -7.16791 4.5708 -9.93395
O 7.46057 8.63809 -6.57168
O 9.34287 8.68905 4.94047
O -4.84764 -3.34172 -8.15792
O 4.77077 8.45842 -7.1147
O -8.73824 -1.69838 -0.614781
O 7.40014 -6.37203 4.96181
O 8.00292 -8.10657 6.67218
O -8.63148 0.655153 8.25543
O -8.14049 7.46494 -7.54048
O -3.07925 3.28027 -7.79573
O 0.416925 3.05998 2.55627
O -2.67829 -1.18186 4.1586
O 6.4017 -2.18041 6.99744
O -10.3507 -4.28024 8.21742
O -2.53748 -7.35803 6.52968
O 8.44528 -3.5305 -5.98665
O 2.31484 7.56761 -8.00468
O 1.72886 -4.6079 -4.94399
O 9.28361 9.76564 -5.18046
O 6.68312 -5.78869 7.45879
O -8.2914 4.20363 -0.51559
O 8.73444 -4.92039 1.21079
O -4.21969 8.91718 -10.2237
O -0.954383 4.20155 -6.10328
O -3.89604 -0.897504 -7.49497
O -0.936145 4.86176 8.15046
O -1.54785 4.21671 1.37745
O -0.725465 -0.269519 -3.93332
O 4.30903 5.84022 -7.26275
O 6.88536 -6.04456 -0.622347
O 7.74807 10.4565 4.07727
O -0.980095 7.80304 -2.41119
O 0.379983 2.38629 8.08297
O -9.11497 -4.25627 -6.2232
O 1.1873 4.35355 -4.66851
O 5.97099 -10.1358 -6.37503
O 2.85705 3.42775 1.66433
O -7.21992 5.37787 1.45331
O 5.17631 6.56915 6.05045
O 2.25153 1.2988 3.11086
O 9.97332 -2.02702 -1.6536
O -9.28263 10.477 -4.97898
O -8.18245 -5.86581 -10.9369
O -1.05555 -8.1732 -0.644109
O -0.560284 -1.529 2.2484
O -0.247014 6.57351 -0.256178
O -2.4705 -2.2027 -4.09055
O 8.2224 10.2328 6.65983
O -7.93768 -9.12227 -6.74714
O -4.95389 4.84434 -8.62832
O 2.14501 -5.18602 0.132417
O 8.9597 -4.66628 -1.30528
O 10.4969 -4.18889 3.09783
O -8.21984 -7.03562 -8.54048
O -9.43373 -7.69143 6.95066
O -0.646909 -3.83361 4.17113
O -2.51295 -5.74286 0.24914
O 7.675 3.15279 -5.06665
O -6.64875 3.05419 2.21219
O -10.2662 5.10574 3.6743
O -5.11427 6.36138 -10.7781
O -4.70738 -5.02885 1.25618
O 0.401642 8.7446 6.66962
O -1.79965 7.86416 3.87305
O 5.51203 -8.12574 4.66144
O 7.72733 -1.59773 4.89664
O -4.50962 -3.71279 3.44448
O -3.11913 10.372 -5.36726
O -1.20379 8.76021 -4.73144
O 2.83667 8.335 5.94035
O 2.65786 -5.72889 7.09948
O 8.83674 3.95583 -7.24389
O -6.92432 8.94514 -0.602505
O -7.21224 -4.66326 -4.24069
O -8.06543 -6.62448 -6.1067
O -3.09091 2.34321 0.782702
O 5.77986 5.81598 -5.18451
O -8.52279 -1.97227 2.5289
O -1.24213 6.44885 6.12664
O -9.95363 5.5121 -6.93634
O -4.87338 -1.25278 -9.84766
O -0.477687 -0.0964358 4.30116
O 4.31002 7.7577 4.03303
O 6.44176 0.918215 -0.945575
O -7.27915 -6.06048 -0.762809
O -8.37797 8.19005 -2.72911
O -2.79418 2.23146 -10.1538
