591
Atoms. Timestep: 1790001
Si 9.41376 -5.05187 9.47578
O 9.11433 -5.79701 10.9544
H 8.32836 -5.54535 11.425
Si -5.97936 3.11132 -9.92935
O -5.57461 3.10137 -11.6147
H -6.06804 2.4764 -12.1328
Si -8.98809 4.05027 -9.29522
O -10.1031 3.69458 -10.5213
H -10.0272 4.22442 -11.3062
Si -1.30013 2.96011 9.72646
O -1.66436 2.69484 11.4124
H -2.46123 3.12438 11.7005
Si -10.0004 -10.3812 8.95826
O -10.2871 -10.4299 10.6367
H -10.2828 -9.57947 11.06
Si 4.33931 -1.83942 -9.16387
O 4.0755 -3.30337 -9.99669
H 4.78404 -3.53934 -10.5839
Si 1.79339 3.22361 9.44004
O 2.43296 3.52448 10.9241
H 1.80392 3.59324 11.6326
Si -6.99944 10.0315 8.10882
O -5.94375 9.57268 9.33525
H -6.3408 8.98136 9.9639
Si -9.77986 -2.58185 10.0045
O -10.4416 -2.05442 11.4789
H 9.93242 -1.35759 11.4051
Si 2.61413 -0.116968 -10.8968
O 2.77047 -0.271749 -12.5834
H 3.31627 -0.996222 -12.8658
Si -4.38276 -1.65054 8.45349
Si -6.7914 4.93527 -5.77161
Si -0.995665 5.65929 1.43043
Si -9.2952 9.25712 -6.50677
Si -0.48445 -1.17777 -0.134443
Si -1.03994 1.6871 -6.00721
Si -0.875054 8.65627 7.76077
Si 0.378582 8.33857 -5.17524
Si -8.56495 6.84943 4.10104
Si 5.48957 1.70887 -0.522578
Si 3.70278 3.03368 -6.98179
Si 10.5065 -4.71806 4.02045
Si -7.39837 -4.10669 -2.41382
Si -0.697468 -5.99732 0.254553
Si 8.0982 -9.38944 0.469825
Si 8.08781 -7.78987 -2.20015
Si -5.73829 1.97636 -5.41089
Si 10.4034 9.89473 1.46774
Si -9.0693 6.40319 -7.54363
Si -3.00161 -10.1532 6.90055
Si -5.18271 5.35255 1.81808
Si 5.99442 9.44018 7.01062
Si 6.81328 -3.17397 0.382277
Si 4.94341 -1.58095 2.27281
Si 8.16583 1.18933 7.35877
Si -4.66614 -5.35646 3.7924
Si 9.39007 -0.561689 5.27738
Si 7.03545 -4.6788 -2.13603
Si 0.934168 -1.15532 3.76306
Si -0.582067 -7.11295 -5.797
Si -5.77988 -8.28934 -7.18847
Si 9.96856 7.06506 -5.44728
Si -5.26573 2.70163 6.25907
Si -8.33682 4.35638 2.1051
Si 5.86795 -8.57096 -4.2652
Si -9.68298 -1.21314 0.162593
Si -3.04721 -9.46462 -0.173424
Si 10.4106 4.35333 -4.36096
Si 3.6036 -4.73668 -6.35598
Si -0.164688 6.80307 -7.80173
Si 6.0514 1.41344 -5.9926
Si 6.90749 -10.0315 -6.94681
Si 3.81589 -10.1224 -7.37179
Si 5.6765 -0.930466 7.57843
Si 2.26673 9.13508 4.356
Si 8.84391 0.232785 -6.31643
Si 1.25432 -1.63383 6.91164
Si 5.34265 -1.26773 -4.35428
Si 9.80354 4.5156 0.741335
Si 5.34097 6.34043 6.97498
Si 2.32119 5.26866 7.14405
Si -9.90242 -5.44274 -1.31142
Si -7.4156 -4.42158 4.952
Si -4.26505 -3.6244 -1.6119
Si -7.33614 2.71933 -0.254604
Si 6.73889 1.05322 2.23524
Si -9.19431 -1.59025 -2.90589
Si -3.08485 7.66346 -8.22596
Si 4.76128 -6.18836 7.55939
Si 1.32456 6.85874 -2.55111
Si -7.82477 0.960634 6.39391
Si 0.634419 3.73973 -2.1505
Si -10.2193 2.8526 -1.63023
Si -4.32227 0.188795 1.5321
Si 9.2026 9.07682 6.91141
Si 6.98087 7.92533 -6.12045
Si -5.47755 -8.44534 7.18439
Si -8.45714 -5.84619 -4.80218
Si 4.84974 -5.77086 -3.94941
Si -6.68509 -10.4942 -5.32046
Si 2.30865 -0.9687 -4.16616
Si 1.77832 2.10878 -4.67365
Si 6.41637 6.47071 0.422881
Si -3.86782 -3.07552 -6.55651
Si -8.70476 8.08884 -1.61379
Si 3.48338 -10.4732 -4.23574
Si -4.9482 4.27266 -1.18779
Si -6.87166 -1.908 -7.27337
Si -2.3934 -3.70209 4.7086
Si -1.94406 -1.46868 2.63608
Si 6.80951 -3.86904 8.24733
Si -6.54543 7.8826 0.527276
Si -1.58806 -8.68225 -2.80596
Si -2.1607 3.91059 -0.928015
Si -3.54728 -4.91637 0.901461
Si 3.03078 2.93821 5.20924
Si -5.09346 -7.23372 -0.798656
Si -7.26152 0.0025016 1.42436
Si -0.786125 3.70997 -8.43761
Si 2.43068 8.248 -7.46644
Si -0.993542 -8.74377 1.98463
Si -6.52456 6.39099 -3.08042
Si -8.50303 -7.0938 -7.49045
Si 2.15505 -1.70434 1.13236
Si 0.154521 -5.60142 4.98734
Si -3.56113 -6.11598 -6.34713
Si 1.35945 -10.345 6.923
Si -3.1523 0.974695 8.01038
Si -7.88537 9.43723 2.49092
Si -8.76189 1.75946 3.5453
Si 1.30287 1.77759 2.87616
Si -2.40765 -0.490702 -7.97337
Si -3.11597 7.50909 2.39794
Si 4.6022 5.95898 -6.49558
Si -3.87935 5.97421 -5.96469
Si 0.896357 -8.93507 -4.36341
Si -3.73473 -6.28689 -3.20535
Si -7.13485 -5.98502 7.77709
Si -3.54329 4.76381 -8.66028
Si -2.58095 1.11106 -0.75869
Si -7.85491 -8.53819 2.9106
Si -10.4517 -7.74564 4.70172
Si 1.43041 10.304 1.67376
Si 9.79219 0.502571 2.328
Si 2.46198 -6.27642 2.952
Si 3.16862 -8.4498 0.800083
Si 9.08686 -2.93958 -6.50276
Si -6.19684 8.01743 5.74819
Si 1.62087 2.00967 -9.05576
Si 7.57664 4.19027 6.76673
Si 1.38463 7.37929 0.497618
Si 4.06341 -9.05846 7.41784
Si 4.67209 7.11108 3.91439
Si 2.27414 -4.65151 0.590584
Si -3.82738 7.53879 -3.50296
Si -0.802938 -8.51989 5.30484
Si -4.21907 9.77792 4.26451
Si -4.22293 5.6449 6.58938
Si 0.38188 -0.806319 -8.99951
Si 9.57003 -3.74332 -3.41214
Si 2.60087 -4.26973 6.5759
Si 0.119636 -5.79635 -2.89404
Si -3.09115 -1.87923 -3.79141
Si -9.86418 2.31333 -6.72479
Si 6.19041 4.47758 -1.801
Si 7.03242 9.02858 -0.819583
Si -1.42118 3.10859 3.30496
Si 9.58145 6.25905 5.4998
Si -0.171363 -2.61982 -2.89592
Si 7.88659 5.45357 2.84738
Si 6.89541 -0.818787 -1.67982
Si -10.0692 -7.35001 7.9347
Si 3.69649 5.60263 1.45558
Si 6.03678 3.36113 4.14835
Si 2.53138 2.90005 0.2167
Si -1.8242 -1.66298 7.17372
Si 4.23742 5.95505 -3.30172
Si -5.36621 0.516557 -8.23884
Si -8.01181 -7.88126 -0.215579
Si -6.98245 -3.12548 9.0814
Si -8.0688 -10.0467 -2.62325
Si 2.16842 -7.47278 -6.70625
Si 5.99039 -2.95028 -6.99737
Si -5.19485 -8.27222 4.03884
Si 9.81536 -3.91499 0.940971
Si -2.161 10.0119 -4.82657
Si 3.00829 -6.52679 -1.67034
Si 9.63654 7.47491 -0.486914
Si -10.3733 -8.29109 -3.97319
Si 5.4369 8.64354 -3.35336
Si 9.14958 10.4898 4.19325
Si 9.94757 -9.28164 -6.92967
Si -1.75649 5.67134 8.49808
Si -9.09541 -4.0934 -7.22089
Si -3.79644 8.55864 -0.595336
Si -4.22837 10.1873 -7.1779
Si 2.05401 -2.13616 -7.07306
Si -4.60675 2.77949 3.17488
Si 6.12594 9.51323 3.85714
Si 4.74675 -7.36798 4.9174
Si 7.91813 -3.31708 5.31516
Si -10.1908 -0.321902 7.78242
Si 3.07273 0.902789 7.59995
Si 0.349242 7.1282 5.43935
Si 5.06698 -2.73793 5.03485
Si -3.18718 1.2314 -3.90374
Si -6.57578 -1.82021 6.42282
Si 9.09309 0.796378 -3.1077
Si -1.48154 4.82254 5.66153
Si 7.58951 3.33155 -4.2761
Si -8.01929 0.150387 -5.20843
Si 5.80856 -8.83141 2.47282
O -6.78039 1.00843 -4.678
O -2.3381 -9.31685 1.24522
O 9.63692 -9.81142 0.855268
O 1.00102 -0.852877 0.502209
O -2.91776 1.36233 -2.31608
O -4.94152 4.0692 -9.18086
O 1.51684 -2.10431 2.62505
O -0.971483 2.83254 -7.10301
O 3.10637 -5.32427 -0.586015
O 9.98698 -8.90263 -5.34029
O 2.81579 6.84072 0.845723
O 6.10757 3.00888 -1.13473
O 5.1453 -10.339 7.59438
O 6.19814 -2.31231 8.35567
O -3.3493 7.24973 -6.72145
O 2.06822 10.1952 3.14962
O 6.22443 -1.37991 -3.05905
O 6.07588 -4.87063 -3.39987
O -9.88826 6.53152 4.94645
O 0.65474 -6.95864 -6.83918
O -8.51272 -4.51779 -1.34657
O -8.83154 0.585564 7.53773
O -0.633382 -6.20124 -1.38922
O -5.57396 -8.40688 5.58631
O 4.65119 4.65202 -2.42661
O -9.86463 -8.10578 -7.47289
O -2.4956 -7.33476 -3.28944
O -6.60749 9.01627 1.65926
O -10.0726 8.3897 -5.40862
O 10.1153 -6.27744 4.17891
O 5.43607 -7.09101 -4.72682
O 3.52382 7.09237 -7.03917
O -9.06328 -8.0729 3.88819
O -9.31125 -9.30833 -3.38008
O 5.71066 9.5832 5.41031
O -3.75549 -4.56233 4.8809
O 6.25802 9.40409 -2.19012
O 9.49991 0.563355 8.10833
O -6.48368 3.36652 -5.8616
O 8.30671 -1.76084 5.26471
O -8.82334 7.99464 -7.47609
O -6.94825 -10.3202 -3.75309
O -1.24693 0.165212 -0.597895
O -10.2483 7.67836 -1.52206
O -7.39445 3.92971 0.856348
O 9.98203 8.56075 0.701756
O -9.76784 4.49354 1.44184
O 9.87238 -0.347654 3.71194
O 10.2674 1.50837 -2.28826
O -8.23422 3.17466 3.16878
O 0.721909 7.79458 -3.67389
O -1.69274 6.84132 2.28103
O -5.35578 -2.60385 -6.99818
O -5.44769 7.50058 -3.60852
O 3.06294 -7.80932 -0.684429
O 9.61777 9.79665 5.57433
O -1.17825 4.94144 7.20554
O -4.50651 -9.69031 3.69473
O 7.74214 -6.20104 -2.10442
O -3.81798 9.10609 -8.33683
O 0.756465 -5.24188 0.460142
O 1.57384 -6.2585 -2.45477
O -4.74484 -7.13633 -6.9358
O 3.99954 -0.673345 -10.2229
O 5.10198 5.65042 0.781459
O 8.24515 -3.75097 -2.50228
O 2.63169 2.13048 8.58135
O 6.22744 8.53388 -4.75305
O -9.08187 5.58604 -8.91235
O 2.57516 -3.56209 -6.71343
O -6.24202 -4.94475 4.021
O -4.28296 -6.12244 0.0389382
O -3.38747 7.72195 -1.9322
O -9.53523 -6.9163 -4.23521
O -2.15701 -2.55693 5.85461
O 8.80346 6.08388 3.99733
O -4.86729 -7.00836 -2.34876
O 7.36224 0.734876 -6.63161
O -6.70386 2.06885 6.67451
O 3.82282 -1.46701 -4.0068
O 10.46 -2.43625 -3.1382
O -5.78569 5.48649 -1.88071
O 10.3454 -4.19492 2.46166
O -2.86822 -2.14539 8.35921
O 2.83884 -8.76147 -7.45821
O -9.32292 -1.10957 -1.373
O 0.225346 2.81519 9.48888
O 10.4922 -4.92063 -2.74466
O 7.46566 10.2798 -0.008697
O 3.22125 1.7094 6.18798
O -8.72184 1.42722 5.09341
O -4.87219 -9.49223 -7.80564
O -8.06097 10.0632 -5.98699
O -9.77922 3.42525 -5.41983
O 7.68177 9.93073 3.85826
O 4.47124 -2.04694 3.70113
O -10.3563 10.3576 -7.08159
O -7.85818 0.668561 2.79843
O 9.55155 -8.9466 4.37579
O 4.21541 -6.48454 -2.68414
O 9.99584 9.66511 8.12689
O -3.18894 -0.489965 2.50404
O 8.69212 4.40286 1.89893
O 7.10538 4.38725 -3.16616
O -6.63615 -7.1424 -0.331445
O -8.81465 1.12319 -6.24092
O -4.13037 1.829 7.04401
O 5.42777 -1.58358 6.10314
O 9.37482 -3.90671 4.80991
O 2.15883 9.75263 5.84146
O 4.47776 3.30028 4.58643
O 6.45332 -3.46432 4.70238
O -5.91464 -7.0566 7.81964
O -8.60729 -6.72663 8.10929
O 1.79117 4.53001 8.46805
O -3.93407 -5.88679 -4.80333
O -8.50264 10.0451 8.6219
O -4.79842 1.51996 2.26364
O 1.22647 7.4858 -1.0968
O 0.414838 -9.48317 5.85731
O -3.31877 -0.338474 -4.08468
O -10.1144 -8.86792 8.59046
O -2.09421 -9.07091 6.08581
O -7.11304 -0.378461 6.05237
O -6.89789 -2.92816 5.3502
O -7.65988 -10.1824 3.26389
O 6.91685 0.136169 7.57359
O -0.691683 8.02895 6.26651
O 8.27856 8.01846 -1.14
O 1.87655 -10.1719 -4.06287
O -2.96822 10.4492 -6.17989
O 5.63103 -2.02411 -8.26159
O -0.234824 5.28599 -8.07008
O -7.49933 -1.08591 -6.00813
O -7.5236 3.57645 -9.78565
O -3.49665 6.17072 -4.35485
O -1.21985 -0.767859 -9.04437
O -3.6694 -4.60692 -6.9087
O 3.88622 -3.60935 5.77221
O 6.85506 5.50929 -0.796064
O 5.7951 -5.09624 8.22869
O 5.95869 0.375233 -1.1876
O 5.77173 8.05837 3.29028
O -7.22983 1.28732 0.427835
O 2.6895 2.70961 -8.15619
O 10.3311 5.92697 -4.36815
O -0.149578 7.09546 -6.22756
O 4.41944 -0.013645 7.94219
O 2.83025 6.50232 -2.94218
O -5.97915 3.00984 -1.13381
O -1.47331 7.57158 -8.41629
O 5.31626 -6.43905 6.07597
O 7.58085 -3.74116 6.85319
O -4.72803 4.69785 0.317411
O -1.30991 -1.64201 1.13202
O 6.13395 7.98561 -0.0292948
O -8.43594 8.23696 3.26296
O -3.34797 5.81623 8.00745
O 6.46245 2.78836 -5.29322
O 0.419418 3.06501 -9.2378
O 6.02062 -0.364772 2.48832
O -4.18479 -0.0894748 8.82452
O 1.646 8.74975 -6.08253
O -6.95648 -4.67616 8.73997
O -5.02127 7.03518 6.32793
O 10.4013 -0.119468 0.945275
O 1.51796 3.28733 -0.960487
O -2.00616 -8.84227 -1.24278
O -5.43659 1.13144 -6.74293
O 5.49313 0.282951 -4.94899
O -3.5087 4.08887 -1.74716
O -10.2063 1.66755 2.78472
O -0.294861 2.00072 2.96871
O -3.35862 8.76288 3.34541
O -10.0108 -1.38352 8.95177
O 8.00488 -8.43911 -0.760059
O -3.37421 7.95317 0.807255
O -10.4937 -3.94863 9.5424
O -3.53208 6.33719 -8.97317
O 5.66606 -7.95751 3.78206
O 3.54916 8.22429 4.2477
O 3.23252 -1.61459 -8.07525
O 9.8647 -6.269 8.49093
O -7.61777 -5.20305 -3.59331
O -9.22392 -6.84617 -0.821061
O 5.28412 7.12512 -2.90028
O 6.54481 -9.30575 -5.57495
O 6.35049 -4.18455 -0.767208
O 6.51545 5.29635 7.30348
O 2.83031 -5.04852 2.03117
O -5.7831 -0.581116 1.60864
O -8.25028 5.66206 3.0623
O 1.36543 -4.92776 5.79632
O -9.00765 -4.57481 -5.64302
O 3.98313 9.19497 -3.57799
O -1.96517 1.8115 -4.72219
O -6.44421 -0.720343 -8.25456
O 10.135 -5.07781 -0.117505
O -8.94937 -0.454672 -4.02976
O -5.06517 2.59913 4.70963
O 5.62194 7.88012 7.41409
O 8.32353 0.849927 2.05268
O -10.244 -7.62229 6.28852
O 1.17928 7.57686 -8.24845
O -5.47203 5.81193 -6.1176
O 1.47006 6.53536 6.49593
O -3.40771 4.82232 -7.05849
O 3.36022 -5.42978 7.355
O 0.98937 -6.15397 3.6497
O 9.28063 7.50145 6.48552
O -3.8275 0.148387 -8.42238
O -2.011 -6.68791 -6.38771
O 4.2314 4.5569 -7.15197
O 4.44604 -7.61033 8.08786
O -1.15982 7.18146 8.55682
O 7.34939 6.4483 1.71939
O -10.3082 3.82397 -2.89773
O -8.96017 -4.55117 4.49012
O -1.05283 -4.55833 4.76774
O 4.30963 5.82921 -4.96688
O 4.72434 -8.46022 1.3544
O 8.93198 3.88256 -4.87709
O 3.08208 9.59716 -8.02271
O 0.715738 5.36786 -2.40569
O 8.46903 7.47527 -5.68319
O 1.81814 2.03157 1.4116
O 6.47523 1.97425 3.50865
O 1.28502 3.05097 -3.4783
O -0.0205838 -8.57879 -3.05516
O 3.5225 -6.68508 4.10123
O -8.69375 2.74732 -1.07597
O -2.06924 9.76531 7.71714
O 2.42029 -7.52667 1.92314
O -2.23858 -0.0688255 7.13347
O 2.44837 4.15871 5.98059
O -1.93904 -5.163 0.792087
O -0.437038 -6.97027 5.56094
O -2.97414 2.89086 3.04781
O 7.60485 9.39166 7.24674
O -3.97866 -3.69828 -0.0314314
O -0.721624 9.41728 -5.18372
O 9.18567 -1.3432 -6.50344
O -5.53872 8.99121 4.57099
O 7.13761 9.34196 -6.97271
O 4.83304 1.91102 -6.98816
O -5.73157 1.66119 -9.27875
O -8.54666 9.58575 -2.01793
O -5.44936 -2.53019 9.25267
O 6.57991 4.63646 3.35427
O -7.16856 -7.89542 -7.96112
O -3.6843 9.97754 5.73715
O -0.28295 -1.69139 7.39461
O -1.73255 0.439567 -6.89621
O 8.01643 -4.22411 9.25038
O 1.18547 7.98094 4.32611
O -6.43706 -7.89867 3.12278
O -7.81633 -9.05661 -1.37267
O 7.90146 2.76902 7.63893
O 3.83159 2.03945 -0.402743
O -0.687259 -1.00624 3.5298
O 1.27433 -1.54296 5.26014
O -5.10786 4.31141 6.62164
O 3.99422 6.01376 2.97379
O -3.77141 -2.30093 -2.4032
O -0.844407 -7.33924 1.21533
O 8.28412 -0.208784 -2.19046
O -3.01343 8.78113 -4.15628
O -6.76285 8.93043 6.91278
O 10.4826 6.33044 -6.88689
O -0.457102 5.86741 4.94248
O 5.6577 -2.77205 1.48576
O -7.97284 -3.00036 -7.56531
O 9.97673 9.89689 3.01467
O -0.394335 -8.65627 -5.34568
O 9.15112 0.388255 -4.6612
O -1.55438 4.5514 9.65914
O -3.39287 10.0773 -0.689935
O 2.2755 0.670246 -3.98313
O -4.32824 -6.93439 3.92648
O -4.15535 -4.96225 2.31768
O 3.14382 -6.2166 -6.88182
O -9.05288 9.84858 1.40892
O -6.58464 -9.57362 7.61023
O -4.18846 6.24668 2.62573
O -0.217692 -6.32737 -4.41079
O 2.03593 -2.98493 7.35592
O -6.96411 5.3058 -4.19372
O 5.50511 -10.345 2.95246
O -3.76107 0.439129 0.0647984
O -8.01949 5.60133 -6.61345
O 0.192969 -9.71632 1.62952
O -8.15617 -2.82302 10.1186
O -3.02647 5.26238 5.55305
O 1.98194 -0.275841 7.45314
O -5.29491 4.08639 2.69156
O 2.53722 -9.50371 7.59028
O -7.34882 -2.34133 7.74131
O -8.26597 -1.13441 0.906981
O 10.3151 -3.57516 -7.33559
O -8.21297 -8.32284 1.33255
O 1.12989 -1.76981 -3.42663
O 2.85569 2.87195 -5.55972
O -1.30325 3.40675 4.90183
O 8.01742 2.05098 -3.38301
O 8.70135 0.826526 5.79367
O 1.53549 0.240984 3.38469
O -6.32257 -9.07078 -5.81541
O -4.3882 -8.61235 -0.286382
O 5.99437 1.70977 1.06997
O 7.04495 -1.86111 -0.48419
O 4.61288 -9.36582 -3.6961
O 1.15276 8.8136 1.20173
O 2.28097 1.33137 -10.3555
O -5.90818 -3.92669 -1.79307
O 3.85189 10.4875 -5.77318
O -0.101372 -4.19737 -2.98935
O 10.4474 -0.925789 6.38192
O -7.85348 -6.69612 -6.00134
O 2.27556 -3.04502 0.336136
O -2.25403 3.94656 -9.04168
O -3.55343 -4.86335 -2.40228
O -7.99293 7.73352 -0.193649
O -4.43723 2.0031 -4.48294
O 5.4048 -9.84043 -7.71489
O 8.81964 5.02034 6.28602
O 9.86032 3.42527 -0.431013
O 7.58879 -3.24422 -6.89516
O -9.38545 3.18673 -7.958
O 5.03296 -4.25728 -6.93104
O 2.00515 2.6749 3.97609
O 0.508886 1.60661 -5.53062
O -7.39059 7.15242 5.15425
O -3.69349 -2.77222 -4.97256
O -1.08379 -8.70967 3.6746
O 1.33365 -0.982645 -10.2752
O 1.99124 -1.2921 -5.7324
O 6.07376 6.73387 -6.60075
O 9.62257 5.99542 0.0979325
O 3.02045 4.22899 1.0628
O -8.88793 -5.60227 -7.89363
O 4.19138 -8.57125 5.8674
O -7.86126 -2.56946 -2.97272
O 7.02828 -8.38345 -3.17961
O -0.325116 -2.13908 -1.38483
O 9.49383 -7.99805 -2.90435
O 0.407514 6.18616 1.04974
O 0.998917 0.59917 -8.3931
O 7.25583 -8.79593 1.78045
O -0.944328 3.56093 -1.8756
O 6.8551 3.47918 5.52095
O -0.929485 4.35888 2.39915
O -2.95211 -1.98888 -7.37533
O 9.30038 -3.55989 -4.98635
O 0.479414 9.63781 7.79215
O -6.12781 6.49656 1.24374
O 3.6411 -1.19457 1.43071
O 3.79639 -4.98725 -4.78708
O 8.20248 -3.67971 0.949313
O 2.50685 -9.86036 0.76608
O -7.78872 7.16646 -2.62798
O -5.09643 -1.77089 6.9236
O 5.69308 -2.21153 -5.57672
O 8.41716 -9.42369 -7.42317
O -2.16943 1.97212 8.81044
O 2.00558 -8.08363 -5.17278
O -1.75929 5.16095 0.0919303
O -10.4237 -2.6046 0.443838
O -2.1413 -9.92735 -3.64549
O 0.736467 -1.91236 -7.8955
O -7.24765 -5.31176 6.3106
O -5.43418 8.34843 -0.54861
O 5.20795 6.48032 5.27222
O -4.12259 -9.21262 7.57219
O -1.49699 -2.18794 -3.6388
O -5.40537 9.74452 -6.02826
O 3.83811 5.82241 7.33253
O -2.40216 -2.88119 3.29493
O -2.31798 2.54849 -0.048447
O 9.80584 1.41886 -6.89861
