591
Atoms. Timestep: 1790001
Si 6.87892 -5.44439 8.15607
O 5.92504 -4.28113 8.86034
H 6.39412 -3.55939 9.26228
Si 2.99838 5.54696 10.3196
O 2.87233 5.59858 12.0306
H 3.6688 5.78488 12.5137
Si 4.66864 3.17912 8.90797
O 5.21413 1.90549 9.88753
H 6.12109 1.64626 9.77475
Si -8.97167 5.14153 8.86574
O -9.14435 4.27679 10.3646
H -8.28869 4.00922 10.6789
Si -2.42468 3.34409 9.30468
O -3.03018 3.11123 10.9266
H -2.449 3.50172 11.5686
Si 5.38159 -7.86146 9.28841
O 5.07836 -7.79683 10.9765
H 5.31247 -6.966 11.3732
Si -6.4601 7.08501 8.77418
O -6.02886 7.57705 10.3672
H -5.26843 8.12837 10.5096
Si -2.84055 0.465894 8.13099
O -3.12294 -0.288803 9.62629
H -3.43489 0.282131 10.3185
Si -9.63262 -1.20269 -9.61487
O -9.75657 -1.85461 -11.2155
H -9.60264 -2.79204 -11.21
Si -8.98008 1.87066 -10.0708
O -9.07291 1.81202 -11.7633
H -9.61087 1.11014 -12.1104
Si 8.38521 -7.95893 1.33511
Si -2.08459 4.90833 -7.14598
Si 0.890064 -8.32581 5.71829
Si -2.30325 5.51775 -4.21715
Si -2.18033 7.72398 6.35625
Si -0.918056 9.65171 -7.7918
Si -5.62442 -4.97818 5.02128
Si -7.81194 -7.06183 -6.39304
Si -4.2943 9.74403 -3.91285
Si -0.764943 -5.74245 1.76843
Si 6.1721 7.85086 -1.71783
Si -6.49352 2.63056 -5.59084
Si -3.57414 7.48629 3.68854
Si 3.22616 -6.95992 7.23345
Si -4.36124 4.66814 4.71225
Si 3.19541 3.09544 -7.58074
Si -6.59751 6.49641 -6.22798
Si 6.98254 8.5008 3.60084
Si 1.88789 7.72878 -6.24359
Si 1.98285 -0.778257 -4.68041
Si 2.32223 0.859348 0.295734
Si -9.24817 -1.36567 -0.175006
Si -2.71687 2.72331 3.00917
Si -0.834551 8.31024 -4.85846
Si -0.359682 1.12943 -4.0261
Si -1.5382 -0.101375 3.81455
Si -6.23562 8.03275 -0.46447
Si -4.21318 -3.57653 7.22064
Si -3.46499 -8.47797 -4.72768
Si -0.746931 -6.43694 -7.37143
Si 1.72553 3.5039 -4.94272
Si 10.1096 -3.98808 0.471335
Si -6.03973 2.57165 -8.85633
Si -7.08647 0.462094 1.07445
Si 9.67398 -2.86934 -7.58279
Si -3.0486 2.96668 -0.0220695
Si -8.06251 -8.13736 -3.43639
Si -5.2628 -0.620201 6.54542
Si -5.64804 0.0411431 -4.01871
Si -6.69075 -9.14489 5.59486
Si -2.98262 0.307471 -5.55096
Si 3.23416 -5.80216 -4.54126
Si -4.86296 0.91581 -1.17523
Si 2.46528 -1.08345 7.52354
Si 7.35948 -10.0947 -6.54002
Si -4.58978 5.11788 -8.46359
Si 7.83587 8.26622 0.755862
Si -5.41279 4.96769 -3.86635
Si 0.672196 9.07828 -2.33118
Si -8.89985 -2.96768 7.15934
Si -8.97413 4.44376 -5.8557
Si 6.32647 -5.39524 -4.08387
Si -1.58601 -8.17156 0.113673
Si -2.21187 -1.66975 -7.71409
Si -0.428288 1.33058 -0.793922
Si 9.33397 6.28918 7.75043
Si -8.36299 -7.34301 7.50731
Si 4.48428 -7.94593 1.27364
Si 7.54472 -3.11245 2.15441
Si 9.19234 -4.26105 6.88913
Si 3.49904 -3.69042 4.48385
Si 0.994762 -7.91596 -5.09824
Si -1.04971 9.83234 0.177878
Si -3.41389 -3.40133 -1.69248
Si 5.7442 4.64403 -7.1355
Si 6.61717 -3.46378 -6.6224
Si 10.4841 -6.53795 5.12587
Si 8.30239 -8.82431 4.23221
Si 6.04903 0.353509 -3.25155
Si 8.13804 -4.18867 -2.06027
Si -4.4031 -7.70703 4.27348
Si -1.55211 -6.44153 4.78284
Si -9.66776 -9.02743 0.712954
Si 2.48377 7.94982 5.91133
Si 0.974979 5.23697 -7.32306
Si 6.74226 8.81539 -4.41029
Si -9.68114 -9.96118 8.01815
Si 2.35283 1.83979 7.6614
Si -10.3354 -4.39825 -3.72392
Si -7.40826 -6.90882 0.599946
Si 10.4485 10.3194 5.33114
Si -0.635257 -0.890955 6.55219
Si 0.773195 -3.27217 -5.53994
Si -3.43023 -4.55618 1.11384
Si 4.41876 -5.51915 -7.26015
Si 7.82462 -2.05628 5.21775
Si -1.29908 -3.86891 6.62787
Si -6.72603 -5.05625 7.87096
Si 8.97137 9.37171 7.88494
Si 6.73337 4.29951 4.71236
Si 1.94025 1.5256 4.52883
Si -6.23494 -4.32278 -6.29523
Si -1.69266 5.35819 -1.32492
Si -0.158796 9.74864 5.71463
Si -7.36521 -1.61308 -7.56049
Si -7.44238 9.16568 6.99496
Si 0.113168 -7.37988 -2.31681
Si -7.51889 4.153 4.36406
Si -3.22267 8.12462 -1.43582
Si 4.0742 7.73082 3.24076
Si 9.73663 10.0329 -1.05952
Si -7.23986 9.993 -2.81444
Si -5.96249 -3.00659 -3.47761
Si 6.4318 5.37976 7.48657
Si -5.0777 9.08752 -6.69612
Si -7.3866 5.21331 -1.38245
Si 3.10677 0.0634769 -7.4724
Si -0.623642 8.29465 2.9063
Si -10.4626 -5.53198 -6.76245
Si 9.03782 8.5192 -6.24457
Si 1.92598 -10.2718 -6.94608
Si 7.00456 -0.494966 0.807075
Si 0.695821 -1.9402 -8.24741
Si 5.03395 1.74635 1.09458
Si 10.2472 -0.0854034 4.69908
Si 3.47029 4.76954 -2.6771
Si 7.84951 5.20554 -2.43441
Si 5.991 -0.389258 -6.31634
Si -2.53591 -8.69637 -7.70346
Si 4.96418 -8.85938 -3.28747
Si 8.11919 5.47876 2.38541
Si 7.68339 -8.60354 -1.5215
Si -9.92945 -0.81015 -5.86592
Si 4.80011 -1.02953 5.19777
Si 9.67686 2.96068 4.93902
Si 1.2492 6.24559 -1.00838
Si 4.72515 -8.71874 -6.55691
Si 4.88404 1.97526 4.08344
Si 0.22991 3.75692 3.35101
Si 2.92788 -9.0366 3.4467
Si -9.78055 -1.44263 -2.95222
Si -6.49935 -5.56678 -2.18235
Si -6.38352 8.62676 2.6305
Si 7.79858 3.77818 -5.26907
Si -3.43958 -2.02423 2.4546
Si -2.91909 7.57011 -8.34977
Si 1.26347 -0.831917 2.7895
Si -8.32871 -10.1468 3.34264
Si 5.96815 3.07998 -1.60334
Si 10.169 3.33477 1.89731
Si 8.18888 -1.17034 -1.96959
Si 3.1727 -6.97073 -1.45366
Si 3.58759 -0.962271 -1.9717
Si 8.45526 5.75358 -7.576
Si -9.1185 -5.29059 2.53233
Si -6.06611 -0.735443 3.46436
Si -10.0377 8.73391 -3.7524
Si 5.8372 10.3031 8.08038
Si -4.48549 -7.48869 1.25932
Si 4.53494 6.66978 -4.97492
Si 0.674346 -4.50408 -3.05034
Si -3.86942 5.68816 7.71871
Si 10.188 -7.30138 -2.86988
Si -10.0329 5.59082 -3.09605
Si 8.40236 -7.27579 -5.53074
Si 9.48219 7.00236 4.62775
Si 5.54894 -10.0588 5.05996
Si 3.67685 9.6207 -1.80649
Si 0.559824 4.17886 8.85418
Si 1.88356 -3.85821 2.01704
Si 8.74364 1.26495 -6.41284
Si -8.46056 7.22769 4.62219
Si -8.92529 2.95357 6.70992
Si -7.87683 -3.13331 4.15107
Si -3.47584 -5.67491 -3.54859
Si 1.57055 -4.81118 -8.09983
Si 0.250336 5.67189 5.94227
Si -5.43972 -8.77358 -6.99745
Si 2.69683 -3.8924 -1.02232
Si 9.84513 0.275831 1.6789
Si -3.17729 -4.4665 -6.55893
Si 1.81988 -4.01073 7.16946
Si 6.6058 -6.01036 2.41806
Si 1.6284 6.20228 2.08879
Si 4.37921 7.62293 8.47101
Si 3.6766 10.1891 1.26828
Si -4.6428 0.0835769 -8.03571
Si 5.46301 -5.94293 5.36503
Si -2.3046 -0.98188 -0.33439
Si 10.0982 3.42929 -8.22503
Si -8.08411 3.47936 1.16394
Si -8.40764 -0.0604822 6.85478
O -4.07678 8.52546 -7.82646
O -4.97802 -5.7539 -2.80172
O -4.29218 -8.12407 2.72423
O 6.87115 4.98744 3.28073
O 8.55697 4.90404 -6.17182
O -10.4435 -3.52464 7.33057
O -9.3469 -0.17982 5.48552
O 6.44687 5.2502 5.94059
O -9.73019 -0.733748 -4.31252
O 2.29954 9.25062 -6.56305
O -0.728228 -7.11664 1.01572
O 4.40801 -10.2396 -2.67783
O 2.58374 -10.2273 2.32119
O -5.45947 5.75947 -7.22134
O -6.42757 8.43782 1.06186
O 7.49224 -0.430304 -3.17265
O 7.06088 -6.65425 -4.86498
O 0.449108 7.0858 2.78922
O -4.09807 -8.49267 -7.94103
O -0.857922 3.77662 9.49704
O -8.5098 3.99621 7.79887
O -5.85329 9.73226 -3.6568
O 6.24205 9.74245 4.29713
O 0.910345 -0.949765 6.87106
O 8.20554 7.92131 4.44223
O 5.29985 -10.4019 6.60952
O 9.06399 2.30195 -7.62517
O -7.04107 -5.66782 -6.19014
O 7.45879 4.52988 -3.85187
O -1.11926 -2.3719 6.17515
O 6.88311 -9.02506 5.02818
O 4.73082 -9.57334 1.26452
O -4.13356 9.16613 -5.41705
O -7.35033 -9.45464 -2.85131
O -10.1228 -5.76391 -2.80227
O -6.8367 -5.97354 -0.62009
O -7.64394 -9.01548 4.33985
O -1.35195 -6.09234 3.2382
O 0.765206 2.25753 3.7544
O 2.86711 3.03025 -6.0222
O 6.88637 10.2505 -5.09906
O 4.664 -4.63968 5.02505
O -2.60711 -8.61989 -6.06212
O 0.188325 -4.1293 7.2382
O -1.17565 9.14318 -6.24457
O -2.92616 6.92192 7.56385
O 0.0432239 9.74126 -1.05101
O -3.108 -7.86814 0.436341
O -7.02649 -3.16069 -7.11759
O -4.91021 -8.2709 -5.5098
O 5.46815 7.97998 -4.78479
O 2.50914 5.53246 -1.70733
O 3.3877 7.83852 7.2339
O -2.16555 7.71947 2.99811
O -8.20634 -1.68676 -9.00125
O 1.89272 0.00553065 3.95715
O 4.2698 -6.88321 6.01073
O -7.99565 5.66142 -6.39805
O 8.40311 -4.9401 8.05262
O -6.23857 6.10121 -4.71975
O 2.18682 9.60096 -2.46139
O -7.3367 -6.76637 -2.91192
O 0.543058 -0.219527 -4.28531
O -10.4349 3.35216 6.2165
O -2.66062 -1.4581 1.19033
O 2.37469 -3.56224 5.62859
O 1.18843 -3.3994 -8.79496
O -8.84564 -1.45296 7.59296
O -5.94227 -3.70461 -4.89841
O -7.82726 -3.86974 7.93105
O -3.52219 -0.979994 -8.48227
O 8.13872 -8.67552 -6.21983
O -9.75538 -2.91869 -0.0510997
O 6.81392 -2.05536 1.1617
O 10.1066 9.42544 -2.52407
O -0.607339 4.90142 -7.71237
O 6.46523 -5.78693 6.622
O -0.34784 9.11201 -3.542
O -8.48629 -0.940508 -6.61913
O -4.14029 -0.228735 -4.57579
O -1.64231 2.18492 -0.239768
O -1.51405 -5.04601 5.5732
O 2.91774 1.59703 -8.03113
O -7.83 6.2593 8.88322
O -6.41615 8.31561 7.82407
O -1.65938 4.88434 -2.87332
O -8.83703 -3.82072 3.08145
O -5.07477 1.30664 -9.01597
O 1.53647 5.20433 9.63971
O 5.16244 8.98718 8.68101
O -2.58795 2.05106 8.3719
O -4.50163 -4.09681 5.7141
O -8.84458 5.16632 -2.10674
O -3.85702 0.801082 -6.75984
O 9.12872 8.87585 -0.00455916
O -1.01155 -7.93223 -1.36643
O -9.52617 -8.30929 -2.93778
O 5.6639 7.49825 3.4663
O 8.13378 -3.29016 6.19669
O 4.86486 -8.73667 -4.90354
O 9.20613 5.92423 3.49211
O 2.57546 -0.0637208 -5.93604
O 3.30652 -5.40258 -1.24732
O 5.75401 3.02339 4.85951
O 2.03967 -5.04848 -3.75487
O 8.23629 -0.00319242 1.73731
O -1.00056 6.67976 5.87053
O -3.62653 -9.81819 -3.90305
O 6.41686 -8.6137 -2.53621
O 1.97327 -0.936353 -8.15596
O -0.491335 9.05676 1.50436
O 1.01799 4.70142 -5.7539
O -6.9321 10.3687 6.11034
O 0.230641 -2.27061 -6.70367
O -5.61634 -10.3509 -6.89975
O -1.45349 9.16855 6.52003
O -3.00743 -7.17104 -3.89462
O -10.1262 -4.76134 -5.29949
O -0.0337022 -3.70186 -4.22099
O -6.01649 -7.72854 0.866417
O 9.22055 7.86012 8.27744
O -6.33061 -1.41759 -3.77534
O 0.604885 -4.84279 1.89802
O 2.86756 -4.34253 3.20009
O 10.4031 -4.32003 -7.75221
O 5.70775 2.48608 -0.144601
O -3.59612 8.86004 -2.77656
O -4.24202 2.33472 -0.903747
O -0.160735 5.45922 -0.914936
O 1.95216 1.60201 6.09622
O 5.65025 0.164611 -4.79804
O 10.2048 -1.87679 -8.75244
O 6.00764 -9.55621 -7.10572
O -10.0009 -5.12785 1.19423
O -7.9184 -6.11083 1.8826
O 3.91663 -7.75971 -2.61656
O -2.81266 -4.70812 -2.46755
O -10.4007 5.67212 8.39457
O -3.28123 7.93518 5.19514
O -6.78042 -3.99955 -2.55106
O -0.290338 -7.32359 5.35857
O 9.67905 9.41366 6.36629
O 6.48464 -6.82448 8.90998
O 9.01522 -3.40975 1.50053
O -8.59293 -7.92742 0.260892
O -10.0789 7.48294 4.34427
O 5.56069 -6.83095 1.52883
O -8.06561 3.05063 5.32781
O -8.5163 9.88185 7.99383
O 3.10415 -5.38591 -8.22818
O 5.10088 -0.530829 -2.28923
O -5.41985 0.712065 -2.5998
O 2.49975 0.324956 8.29982
O 7.98038 -8.74277 2.63965
O -5.94814 4.44001 4.62765
O 9.90426 -8.33764 1.00644
O -3.54905 3.41899 4.13681
O 3.78645 -5.08363 -5.896
O 7.95552 8.05498 -5.16382
O 6.6952 -4.45514 2.23223
O -2.73864 -3.0942 -7.20415
O 6.85204 8.787 -2.8492
O 10.2262 8.91723 -5.21135
O -7.48298 -6.33725 8.39063
O -2.62684 -1.36329 3.70444
O 10.2498 -2.145 -6.27014
O 1.23557 9.00272 6.00424
O 4.31076 5.74106 -3.65073
O 0.87254 7.55099 -1.91414
O -9.14584 -8.45942 8.44493
O 5.61471 0.274372 0.973422
O -3.99077 -3.86131 -0.183983
O -7.34571 -1.68017 3.7319
O -0.0037995 -7.08298 -6.08282
O -1.58288 -7.49143 -8.16951
O -2.34757 -2.31432 -1.2847
O 9.45708 5.38937 -2.55231
O -4.57593 -2.92125 -2.61857
O 9.32003 -7.66079 4.76483
O -6.55438 -4.06978 4.10318
O 3.32181 2.24518 4.07782
O -1.55092 8.41467 -8.68358
O 7.40504 9.88389 7.92819
O 6.64337 8.32163 -0.302352
O 1.11994 -9.33956 -5.77976
O -6.99048 6.65113 -0.878314
O 3.07934 7.02671 -5.4497
O -9.89939 3.85578 -7.01787
O 5.49476 2.12374 2.59072
O 8.0794 -3.14516 -7.29548
O 1.49615 6.70197 -7.44639
O -7.95897 -0.839127 0.768144
O 2.0748 4.18418 -8.0504
O -9.18882 -9.65136 2.09021
O 9.20661 -4.14608 -3.37629
O 3.57341 6.91686 9.74816
O 5.48739 6.59265 7.97516
O 7.49545 0.275327 -6.55077
O 4.07286 8.81027 2.05345
O -1.36043 -9.69342 0.549283
O 9.58636 -5.36159 5.73245
O 9.01249 7.28304 -7.26661
O 9.77228 -1.27639 -2.24639
O 3.5029 -7.88131 2.54819
O 2.51125 -5.44782 7.47357
O 4.26818 -9.53505 4.21752
O 0.270697 4.99154 7.43073
O -6.89864 9.19984 -1.44993
O 4.05671 -7.35553 8.54799
O 5.71426 -4.52717 -7.43446
O 10.011 1.83192 1.44411
O 4.91525 0.38372 4.44665
O -2.16932 -0.856556 -6.36792
O 0.603287 2.31471 -4.62988
O 4.74016 -7.12654 -7.02602
O 8.96232 -7.659 -1.94069
O 9.32382 4.86154 -8.5581
O 5.94917 -1.98028 -6.37828
O -7.23767 -8.22921 6.75647
O 2.92366 -0.615571 -3.38418
O -5.25263 -6.34575 4.38014
O 8.22657 3.73522 4.97788
O 9.50352 6.43787 6.14491
O 6.92757 6.46619 -2.07431
O -5.54364 3.64669 -4.70128
O 7.63994 -2.69542 -1.90078
O 9.29774 -10.1066 4.38257
O 7.06769 -5.2105 -2.6681
O -1.89887 -5.39981 -6.96902
O -9.94456 2.87291 -9.32526
O 3.44703 1.77284 0.951677
O -6.81255 -0.265264 6.79077
O 0.477218 -5.90841 -8.28834
O 9.61181 1.34036 4.99809
O -7.36676 4.16506 -0.0840001
O 1.80763 -0.158002 1.38941
O 1.58159 6.53922 0.540437
O 9.10247 -1.07612 5.19928
O 4.61717 3.83952 -2.02048
O -4.93669 -2.09579 7.21021
O 0.169803 4.56829 4.73302
O -3.85271 5.46544 -3.83444
O -7.01874 10.0483 2.91807
O -1.83593 -4.85676 0.983867
O 3.01601 6.53659 2.79365
O -8.32537 5.54382 4.67113
O 2.47024 -3.6606 0.554202
O -3.23337 4.62354 8.70345
O 7.2958 3.99497 -1.53319
O 8.07708 -6.50928 1.86637
O -3.56865 -3.6197 2.39289
O 7.737 -2.54568 3.64191
O 2.26416 -2.64798 8.02298
O -1.26995 3.49807 2.81782
O 9.53709 -7.31714 -4.35209
O -9.49738 0.39861 -9.58476
O -3.24642 -4.85614 -4.91218
O 1.21261 -4.44138 -6.51477
O -7.9865 1.87658 1.01148
O -9.75103 -6.11694 3.75823
O 0.600212 7.61975 -5.34767
O 8.41324 -10.0175 -1.35439
O 1.51841 -2.42505 2.69779
O -3.53844 -0.085406 -0.9384
O -0.42174 9.26135 4.16886
O -5.2469 -4.56543 8.12279
O -0.942468 -0.160053 -0.45095
O -2.32419 9.0874 -0.48666
O -4.87964 8.27522 3.11689
O -9.86318 -9.72621 6.39897
O 6.12316 1.77342 -2.64532
O -3.75647 6.3618 -9.18035
O 7.72512 -0.399731 -0.643657
O 6.89506 5.41761 -7.9343
O 8.36001 9.77398 -7.00724
O 2.96061 0.0385895 -0.92334
O -3.89776 5.92219 3.80709
O -10.0599 -10.1552 -0.407318
O -9.76976 4.94879 -4.54161
O 6.48665 3.58801 -6.18994
O -5.94581 -0.828125 -7.66629
O -3.34897 2.82011 1.50158
O -6.84229 -7.99029 -7.25947
O 1.16188 4.62837 2.38191
O -5.34373 -0.585095 4.92267
O -7.36541 7.63984 3.53777
O -4.75396 -4.6193 -6.95043
O 4.71298 0.0280125 -7.24053
O 6.32364 -6.33766 4.00259
O -3.35828 4.23578 -7.90592
O -2.94543 -7.32656 4.81697
O 1.97967 -2.3931 -5.01153
O 4.6223 8.31401 -1.67235
O 8.50918 2.37318 -5.2109
O -8.48482 -3.09495 5.60231
O 1.74168 -8.61833 4.34929
O 1.03851 1.70019 -0.193664
O 3.36751 9.95405 -0.268687
O 3.3571 8.24522 4.59889
O -7.45649 2.20182 -9.53942
O 9.92511 10.4925 8.49055
O -6.22257 4.81535 -2.50506
O 2.40835 -7.1803 -4.95349
O -8.08251 8.05092 5.99264
O 5.78057 4.09879 8.11849
O -4.95743 -1.51544 2.48103
O 1.99204 -7.87945 6.80547
O -2.17689 4.65585 -5.58583
O 10.4655 -0.0835986 3.13661
O -2.33325 6.83568 -1.43778
O 1.30725 2.8314 8.32567
O 7.93393 6.73871 1.3591
O 6.34009 -1.45563 5.6229
O -2.40138 6.52631 -7.20447
O -1.72545 7.02438 -4.36526
O -5.18159 -8.85565 5.11556
O 9.10838 -6.232 -6.56137
O 3.71144 -0.968985 6.44538
O 0.166717 -9.73612 5.9564
O 10.1118 0.427302 -6.32351
O -4.20025 0.259847 7.252
O 1.64901 6.51037 5.75685
O -8.7437 1.47284 7.32006
O 10.4085 3.20618 3.51743
O 3.86802 4.30648 9.83765
O -2.69264 4.48923 -0.472665
O -6.49944 0.49372 2.5699
O 4.31422 -2.29067 4.33654
O 4.59948 3.72179 -7.87139
O -10.4613 -0.482594 0.461849
O -7.6394 3.81065 2.73502
O 1.26341 -3.7778 -1.7684
O 3.76891 -7.64516 -0.0925762
O 5.69618 -9.37815 8.93624
O 0.656467 10.3271 -7.89581
O -8.03011 -7.90773 -5.00236
O 3.72347 2.59541 7.81875
O 9.14542 -4.44785 -0.767255
O -6.25011 2.61208 -7.22291
O 7.4169 8.8988 2.1796
O -8.47765 9.39776 -3.58265
O -2.3419 1.17209 3.30451
O 3.40461 -2.52039 -1.59031
O -0.968832 0.0921671 5.29941
O -7.88847 3.32083 -5.44064
O -5.31894 6.09443 8.22776
O -9.90707 7.1773 -3.4198
O -9.40846 -6.78863 6.38765
O -6.31657 1.11552 -5.04104
O -0.318637 -0.589966 2.9963
O 2.45886 3.89949 -3.63987
O -1.48785 -0.234606 7.67662
O -0.118984 -5.8063 -2.65089
O -4.69897 7.96621 -0.760407
O -6.30279 8.00245 -6.54772
O 7.94362 5.53613 7.93583
O 8.81605 4.20491 1.69788
O -8.85221 -1.03981 -1.68498
O 5.16834 5.70855 -6.15328
O 3.33589 -9.40171 -7.1491
O 1.58777 -7.33094 -1.58819
O -3.93362 5.03182 6.22723
O -0.857637 -1.53832 -8.56503
O -0.400726 1.41436 -2.39063
O -9.33781 10.0726 4.28757
O -1.84001 1.0695 -4.6374
O 0.356211 -8.08603 -3.70041
O -4.23487 -5.91702 1.32675
O -6.67676 -5.31719 6.24214
O -9.58687 -3.04028 -3.39726
O 6.72902 -4.16966 -5.12101
O -2.65931 -3.78256 7.52164
O -1.9019 -10.0887 -8.09369
O 4.76491 -5.66074 -3.89904
O 7.52182 -8.19294 0.0383998
O -9.26962 -6.65121 -6.89774
O -9.65255 4.05267 1.1493
O -5.555 4.08406 -9.26776
O -5.99148 0.613365 -0.0416152
