588
Atoms. Timestep: 1790001
Si 5.28941 -0.939733 8.92534
O 6.22104 -0.541956 10.2808
H 6.73408 -1.25893 10.6347
Si -8.90482 1.29093 9.41183
O -9.14685 1.67686 11.0718
H -10.0281 1.6368 11.4244
Si 0.835272 9.32021 9.52825
O 1.44197 8.12268 10.5918
H 1.1643 8.18702 11.498
Si 7.3964 6.62903 8.9305
O 7.59358 6.6916 10.6446
H 7.55207 7.57729 10.9856
Si 1.63252 -8.70098 9.98237
O 2.04179 -8.13934 11.5374
H 1.80281 -7.24847 11.7649
Si -8.41978 -1.87688 9.75106
O -8.86408 -1.72281 11.3955
H -8.43655 -1.00467 11.8471
Si 5.39507 4.02785 8.86999
O 5.3279 3.72572 10.5677
H 5.28397 4.49092 11.129
Si 2.11877 -1.20681 9.39949
O 1.73556 -0.872856 11.0027
H 2.48167 -0.510238 11.4657
Si 5.65306 -1.39287 -7.94214
Si 0.933904 -3.82299 7.95624
Si -5.76854 9.25758 -5.66257
Si 5.99926 -1.08878 -4.74597
Si -3.81494 7.16561 6.6351
Si 0.879719 4.20182 -9.19224
Si 7.60755 -9.85771 1.03896
Si 3.85259 3.45835 4.53863
Si 3.05649 -6.60879 -7.83389
Si -3.18638 4.58617 -6.49616
Si 6.21786 9.63578 4.75205
Si 5.97261 3.02685 -6.32435
Si -6.19015 8.57868 0.738624
Si -10.259 -8.94866 -7.29799
Si 8.39577 -9.14611 3.97294
Si -0.0156756 4.6453 -1.88856
Si -4.11121 -1.1005 -7.47924
Si 3.13044 -5.40582 6.54696
Si 1.39691 -0.506588 -3.59437
Si -1.8261 -7.69452 -4.01669
Si -8.35007 -7.16181 4.98908
Si -7.56239 2.02748 -7.3565
Si -5.82234 -9.61258 -0.55408
Si -9.32421 1.97599 5.35412
Si 6.80339 2.64507 4.51367
Si 4.38959 -9.00829 8.2701
Si -0.245718 2.18546 -7.05031
Si 2.29544 5.88012 -5.84666
Si -8.36882 9.62209 -3.99204
Si 0.0641874 -5.74072 3.30748
Si 0.139068 -7.22179 -7.31252
Si -8.72767 -0.0656438 -2.93443
Si -8.28556 3.87603 7.50297
Si -1.15624 1.60623 5.33736
Si -7.70385 6.17793 1.46744
Si 9.41292 3.08588 -4.16547
Si 4.88884 -4.98877 3.91573
Si 7.32528 5.75087 -6.15084
Si -0.482675 5.96377 -7.35676
Si -5.00615 2.39297 -0.368543
Si 5.77478 -6.22622 7.85179
Si 0.836292 6.09194 6.88527
Si -8.63163 -0.364919 -5.94162
Si -0.487319 -5.95863 -1.97711
Si -6.93904 -0.76429 -8.29133
Si -5.07948 -8.80811 -6.42636
Si -7.69355 -7.4138 -6.85182
Si -10.1912 6.8834 3.27189
Si -5.56972 2.05465 3.79992
Si 7.40539 -6.34908 5.18708
Si 9.01515 9.48916 -7.61469
Si -1.66223 -6.87614 0.815002
Si -10.0343 -0.789663 1.9032
Si 3.84129 6.16187 3.01243
Si -1.11456 8.78719 -5.96919
Si -0.444599 4.42582 4.39084
Si 5.22039 8.35022 -2.33837
Si -4.17958 -3.70208 -5.61983
Si 8.92415 -7.33023 0.337887
Si 8.80001 8.18601 1.25768
Si 5.60615 9.08688 7.84418
Si 8.378 -8.59093 -4.26908
Si -4.14669 -1.40655 7.39005
Si -7.3911 -7.05916 0.353078
Si -7.6552 -0.153182 3.8253
Si 6.51525 1.41825 7.38377
Si -8.08699 3.33662 0.342111
Si 2.33574 0.745838 -6.16588
Si 9.66801 0.712557 7.52792
Si -1.17201 -0.747166 -7.60665
Si 2.01593 -6.65941 -4.97239
Si 5.43113 -8.45245 -8.39355
Si -3.90353 -2.35098 2.13092
Si 7.08588 -3.33231 8.0345
Si 6.0988 0.614735 2.09557
Si -3.35358 8.35834 -3.82793
Si -2.87085 4.82103 -0.511928
Si -0.433472 -6.47615 8.84306
Si 4.32253 5.61519 -1.7203
Si -5.57952 -8.52841 4.28712
Si -6.24484 -1.57162 -2.659
Si -9.06485 -8.45523 -4.39765
Si 4.77137 -1.90895 2.77299
Si 3.99761 3.92964 -8.69182
Si 2.73349 8.49135 7.12334
Si 10.1204 5.82878 7.38803
Si -2.3943 -3.52026 -3.03417
Si -0.154289 -10.2444 5.67167
Si 1.68313 -1.04903 -8.50068
Si -1.83235 9.12531 -1.21166
Si -4.58151 -3.30938 -0.76975
Si -8.55561 4.97607 -7.57346
Si 10.233 -6.69132 -2.51139
Si 2.45599 -8.7093 0.248518
Si -6.5678 -4.96758 6.24454
Si -10.1742 2.16963 2.3921
Si 8.91202 3.84474 0.52516
Si -9.61147 -9.96281 4.91536
Si -5.64766 -2.4896 4.79029
Si -4.62477 -7.57315 1.39235
Si -9.63914 -2.02623 -8.28135
Si 8.72975 -1.60355 -7.7133
Si 9.52435 -3.54197 2.54617
Si -4.15843 1.50318 6.54859
Si 10.3578 -1.01837 -0.925031
Si 7.37833 -3.74867 -3.83124
Si -0.822413 1.45837 0.56378
Si -3.74869 0.847541 1.80952
Si -6.53643 7.593 5.50667
Si 2.93152 -7.14901 2.90512
Si 2.5432 -8.37464 5.85825
Si 3.36754 9.11406 4.14627
Si 2.53185 -6.56735 -2.09068
Si -5.66067 5.05756 3.79867
Si -1.66948 -5.19043 -6.01129
Si -1.18791 8.44437 7.67606
Si 3.92815 0.98181 -8.73143
Si -5.71805 -3.53901 8.91407
Si -9.49276 8.25011 6.15206
Si 9.96196 6.67474 -7.45472
Si 9.61803 9.50715 -4.55223
Si 3.69884 2.32199 0.986621
Si 8.00804 7.16632 -3.32041
Si 2.93661 0.367334 4.19962
Si -6.36792 -5.68301 -2.06745
Si -3.79968 5.19219 -3.55012
Si 8.20108 -7.36553 -7.25515
Si 7.57691 -4.54907 0.294359
Si -9.14576 -4.65632 -6.67322
Si 0.88251 7.6297 -1.66979
Si 5.45049 -8.6496 -3.29208
Si 4.37209 10.033 -4.88339
Si -1.20119 -7.33362 5.79483
Si 9.94641 -2.47222 8.05413
Si -4.83832 -8.31175 -3.21617
Si -6.73119 5.05254 -3.60928
Si -5.99508 6.23308 -6.46396
Si 8.83781 -3.73298 5.6402
Si 1.45816 0.791834 7.00947
Si -7.13112 9.89474 3.44882
Si 5.99645 4.2146 0.174588
Si 3.35365 -3.47668 -8.03668
Si -10.0107 5.64709 -4.98119
Si -2.90262 6.30217 3.7432
Si -0.441897 -9.7435 0.57012
Si 4.05032 3.8368 -4.10271
Si 9.85511 6.35368 -1.01815
Si 9.60174 -3.69783 -1.95521
Si -6.90568 -4.02341 -4.58327
Si -4.12167 -6.97967 6.22623
Si -0.584947 -2.36527 -4.93575
Si 0.93937 3.70862 1.68515
Si -9.85954 -6.29002 2.32971
Si -8.49221 7.04606 -2.46626
Si -1.83264 -3.08157 6.78071
Si 2.5958 3.67696 7.49062
Si 3.773 -1.72603 -2.76165
Si -1.27919 -2.94335 3.60217
Si 7.29115 -0.216867 -0.599509
Si 4.92672 -10.1639 -0.553924
Si -3.21855 -5.35674 8.61606
Si 1.476 6.81375 1.29267
Si -8.76475 2.84743 -2.61118
Si 0.0733521 -0.0975307 2.99725
Si -5.12454 4.39514 6.85378
Si 8.91721 4.88703 4.58675
Si 4.68505 6.7105 -7.77319
Si 0.645503 9.39611 2.91791
Si 5.78535 9.58958 -7.75807
Si 8.02578 0.890674 -5.87641
Si 8.90787 -4.64799 -6.32619
Si -2.03243 -9.32399 -6.56401
Si -3.25702 7.49408 1.12756
Si 5.10065 -5.50702 -3.2599
Si 2.58923 3.11898 -1.66644
Si 5.20058 -2.54206 -0.10205
Si -4.6207 1.8573 -6.22558
Si -4.4123 0.925092 -3.13655
Si 1.68256 8.68338 -4.44006
Si 3.09149 -3.94445 -4.92491
Si -1.40055 0.987211 -2.56446
Si 6.87957 6.87015 3.17678
Si 7.56364 2.39925 -1.81822
Si -1.44482 3.48262 -4.3731
O 5.15312 -10.4135 8.42814
O -6.63391 5.66969 -5.08754
O -9.33498 -6.68857 3.79679
O 2.07531 7.15539 -4.85387
O -7.10004 -8.62522 -0.121153
O 4.5515 1.08711 1.6018
O 5.15672 -9.13447 -1.83169
O 1.92708 -0.592587 -6.99717
O 6.64889 7.62624 -2.5099
O 8.58176 -5.36011 5.55718
O -3.10878 6.90784 5.22955
O -8.90244 6.63975 2.38351
O -5.21498 1.59932 5.32155
O 8.33441 -5.77929 -7.24434
O -3.55559 -8.84198 -6.90231
O 3.86923 4.03999 8.34855
O -6.02293 -9.97686 3.8496
O 0.0469207 9.85312 4.3417
O -10.0643 -0.0734335 -2.08666
O 0.00230911 0.401002 -3.23451
O -4.73385 -1.98782 5.9872
O -4.28859 -2.25087 -6.32133
O -10.4288 -4.73442 2.43552
O 7.16463 -0.0578421 -4.82385
O -10.1822 -8.79741 -5.59967
O 7.47116 -3.30562 6.41318
O -1.03707 0.851579 -7.41458
O 6.34082 3.23653 -1.15101
O 3.00996 4.7092 -5.04558
O 4.53094 -9.39634 -4.41121
O 3.42303 6.50132 -6.87799
O -3.84201 -6.60885 7.81407
O -7.42269 -6.24003 -1.00726
O 8.80123 -3.06589 -6.88635
O -2.66329 -4.31642 7.4729
O 3.72528 -1.03197 9.29511
O 0.723674 7.80221 2.29256
O -9.82586 5.81273 -8.07849
O -0.793786 -5.92407 -7.22705
O -9.78587 9.42662 -4.72229
O -1.16309 -6.29181 -0.597449
O -3.26565 -6.83311 1.02869
O -0.344023 7.0807 7.34439
O 7.84428 -9.08278 2.44949
O -2.97647 8.93063 -2.42821
O 6.95856 -9.05428 -3.70619
O 9.08434 -3.3986 4.08578
O 0.248554 9.17182 -5.12241
O -1.71848 -8.92837 -5.04831
O 0.0528196 1.0473 6.27877
O 4.81737 -0.865726 -3.70517
O 10.3023 -5.07402 -2.53299
O 6.47032 -2.56206 -4.30819
O -3.18572 -8.09251 -3.21906
O -0.418369 -1.56739 3.45874
O -4.79234 -8.35174 5.67865
O -8.78511 -8.45908 -7.63006
O -8.19205 1.42549 -3.04792
O 1.43362 7.53625 -0.2119
O 7.64427 7.25847 1.85468
O 6.5256 -6.54264 6.50653
O -8.07682 -7.68246 -5.34585
O -5.51152 -2.14625 -1.31087
O -4.25676 5.71428 7.26691
O 0.31799 5.40234 5.46328
O 2.43574 -7.20749 -3.59795
O 2.36969 -6.90128 6.44042
O -4.52093 5.56251 -6.683
O -8.43445 0.70932 4.9014
O 5.13911 -0.0813276 -8.65971
O 6.57153 1.72676 5.78997
O 5.0641 8.24431 -8.22128
O 4.19027 8.32764 7.73159
O 4.76197 9.897 4.08974
O -1.25165 4.6193 -0.8817
O -7.14637 7.35487 0.494308
O -5.29908 -0.402469 -3.23942
O -8.24496 -5.93018 -7.1248
O 8.55466 5.97757 -7.20601
O 3.1041 -6.74833 -6.25219
O -8.59045 1.19972 -6.40438
O -6.724 4.35661 7.35256
O 0.0941091 -1.1109 -8.57051
O 3.87116 -5.57405 -2.16797
O -0.843134 -6.93356 7.29982
O -4.21136 1.78126 3.0301
O -6.77811 8.61149 4.35343
O -5.50155 -6.90065 -2.79071
O 6.07231 -3.909 0.0305741
O 5.4479 -7.72811 8.4769
O 5.00488 -3.41945 3.38538
O -5.17481 7.92753 6.2929
O 2.28173 9.57532 3.10236
O -8.27052 -4.04068 -5.48356
O -9.61922 6.75771 -1.30389
O -8.57919 -6.72924 1.3834
O 7.16081 0.857421 -1.81054
O 0.0292735 3.11471 -8.29458
O -5.71554 7.81821 -6.40771
O -6.49713 -2.69588 -3.75874
O -1.36867 -4.70226 -2.67729
O -3.24341 -3.22855 -1.69177
O 9.92478 -1.64135 -8.77958
O -8.07923 4.88849 0.675467
O 5.30412 9.90287 -6.24032
O 3.47897 -9.91102 -0.0244493
O -0.344156 -6.51386 4.68719
O 10.4811 6.90206 -5.92975
O -1.9023 10.0991 -6.61727
O -4.84396 -2.65595 3.38367
O -8.15328 3.37565 -7.87852
O -5.44861 -1.26447 -8.42826
O -4.54956 9.18602 -4.54059
O 9.18589 -10.062 -4.00418
O 5.61435 0.221001 7.86046
O 2.96946 6.61421 1.7428
O -5.32683 -9.32534 -2.04364
O 2.39168 4.11627 -8.57884
O 2.07868 -4.27144 6.88666
O -2.73928 8.02448 7.436
O 8.85573 9.32702 -6.01188
O -1.93157 5.3122 -7.0629
O 9.47341 5.09189 6.07665
O -4.18913 5.55936 3.31012
O -6.15971 3.49313 3.44064
O -8.26296 -0.204373 9.36635
O -4.41047 0.199239 7.39805
O -0.0383294 10.3012 1.79715
O 1.5735 -6.23328 2.90957
O -10.3258 7.31865 7.10515
O 9.0244 -7.32275 -3.43354
O 6.97438 4.23926 -6.04044
O 1.22384 -9.36424 5.93904
O 9.6889 4.60124 -4.71755
O 1.02792 -10.2246 10.0746
O 9.60155 -7.91995 -7.75248
O -8.55537 3.04283 6.13492
O 6.0306 2.77012 8.08557
O -6.92808 9.47012 1.91815
O 8.79591 -0.744956 -0.61676
O -4.73544 -7.94707 3.0113
O 7.44292 4.42371 0.879506
O -4.84682 1.84175 -1.90503
O -1.01028 1.20047 -0.993197
O 3.00942 -8.76595 9.09899
O -0.847562 -3.92606 -5.40405
O -7.70267 -1.05109 -2.29284
O -4.73508 1.16459 0.622219
O -7.17883 5.75637 -7.49813
O -9.70699 -2.40991 8.91999
O -3.0303 6.09176 0.386182
O 1.72988 9.20496 8.19538
O 2.00864 2.18581 7.56348
O -4.7329 -8.9288 0.449446
O -8.94393 -8.62086 5.55159
O 6.9858 0.616865 0.789415
O 10.4084 1.41204 6.21681
O 3.14743 4.59998 -1.2946
O 7.71262 5.91948 4.17234
O -3.51388 -3.82195 -4.1814
O 3.2382 -2.83766 -3.8585
O -9.60901 9.8176 5.94366
O -2.79317 4.46144 -4.69303
O -8.24631 -1.53795 -8.86887
O 9.99749 -3.3435 6.69407
O 10.4662 -2.55193 -1.33234
O -0.851448 0.882125 3.87985
O -0.682558 -7.18474 -3.00513
O 4.8148 4.84453 -3.14288
O 3.77058 -8.90504 6.76443
O -2.71867 7.38195 2.57832
O -0.927025 -8.48865 -7.46949
O -7.12501 6.26551 -2.50077
O -4.92028 4.37054 5.2235
O -2.47221 -2.98139 2.56477
O -2.47537 8.53902 0.106455
O -9.61572 -7.48536 -3.21161
O -1.25653 -10.4758 -0.669631
O 1.50952 -0.201999 8.2559
O -7.21137 0.812208 -8.48949
O 9.78212 3.15194 1.59192
O 3.52344 4.77195 3.70935
O 0.75543 -1.7876 -4.32935
O 6.58449 -4.89407 8.28851
O -6.18433 -7.87686 -7.103
O 0.470772 -5.11424 8.69171
O -9.65897 -1.22307 -6.84386
O 1.6014 8.61992 -2.80799
O 0.637051 6.109 -2.0623
O 8.09384 2.89671 -3.23009
O 3.65177 7.52752 3.9959
O -9.84863 7.61515 4.68456
O 1.57573 -2.64244 8.95715
O -8.90247 3.06161 -1.02231
O 7.19922 -1.6691 -8.28249
O -8.72103 -0.744816 2.77342
O 8.234 9.68898 1.26531
O 5.857 -2.31164 8.36887
O -5.97395 9.80493 -0.329384
O 0.772367 -7.21129 -5.82171
O 5.07023 3.51318 -7.54442
O 3.79845 -0.973841 3.70298
O 3.58257 1.17609 -7.12626
O -9.59937 4.86584 7.69548
O 2.43124 -0.885197 -2.48155
O -5.28232 4.54499 -3.55541
O 5.39702 5.51168 -0.509865
O 6.84641 1.71453 -6.53563
O -10.3391 1.06916 8.67688
O -6.10954 2.24281 -6.56032
O 6.26421 -1.37876 -0.40999
O 2.7936 9.27569 5.66902
O 0.539482 -7.66967 9.452
O 9.24375 7.61476 -0.187444
O 4.51619 5.49898 -8.85309
O 4.412 -2.18293 1.19035
O -4.94161 -2.17635 8.50298
O 2.6841 -7.51868 -0.861763
O 8.64826 -0.242776 -6.83492
O 9.701 -0.966274 7.46243
O 2.74829 -8.06858 1.63385
O -0.578772 4.45006 -3.45534
O -4.42107 2.95179 7.27011
O 0.97039 5.29363 1.15502
O 2.40902 0.294274 5.75273
O -3.11355 -4.58986 -6.41647
O -9.74306 -0.646408 0.309476
O 0.776665 5.50405 -6.32347
O 2.23828 0.361508 -4.66877
O -2.08924 8.2711 -4.84995
O 4.35442 -2.38659 -1.47177
O -7.13327 -2.87286 9.61864
O -7.92295 7.77003 6.35371
O -6.69555 -1.27396 4.43594
O 10.2572 0.644535 2.32255
O 1.49208 -6.94031 -8.14918
O -5.40264 -4.67428 -1.21699
O 0.183912 5.58906 -8.75828
O -7.01091 -4.99239 -3.37719
O -8.23134 2.60793 8.65507
O 9.21683 1.86895 -5.29104
O 5.57433 -1.2424 -6.31373
O -1.5897 5.39579 3.78335
O 1.4308 4.82719 7.72052
O -8.80309 2.37647 1.4589
O -0.0874434 0.309267 1.47949
O -1.72459 2.33268 -3.33798
O -1.83622 -3.06207 5.16667
O -4.28914 0.426551 -6.87556
O 3.1804 -3.37236 -6.42495
O 6.04175 -0.949793 2.64263
O -9.43891 -3.58182 -7.89232
O 7.98144 -7.73869 4.66372
O 9.67939 5.07551 -0.144584
O -2.04602 -6.4406 -5.01316
O -6.55545 5.76097 2.50621
O 8.62318 -3.13308 -3.05925
O -7.23337 -0.815198 -6.61566
O 4.71557 -2.68028 -8.26165
O -5.65725 -4.38725 -5.55011
O 7.67213 6.51961 -4.75781
O -9.13704 4.78854 -6.02749
O -0.119685 2.78196 0.945317
O -6.32735 -4.39464 7.6919
O 4.17233 -7.54416 -8.4675
O -8.43121 8.60589 -2.81512
O -1.64805 -2.30023 -3.70546
O -0.313686 -3.27456 7.14923
O 10.0354 5.50954 3.60693
O 9.92392 7.83225 2.37699
O 5.19028 9.41501 -1.18574
O -8.56829 -10.4603 3.75948
O 6.6392 1.6882 3.18722
O 6.43483 -5.56715 4.20763
O -0.213825 -4.20609 3.37864
O -7.85552 -6.0007 6.00992
O 9.68265 8.12184 -8.15768
O 1.17565 1.76013 -6.4975
O -7.15266 9.33452 -5.02212
O 4.02453 -5.1216 5.21584
O 8.24905 -3.94085 1.60327
O -9.19306 6.3217 -3.78953
O 0.98802 -9.20771 -0.00382762
O 7.3518 -10.266 4.53704
O 8.96181 8.42571 -3.58566
O 2.81563 9.69324 -5.00804
O -0.928299 -6.17604 2.04087
O -0.611715 8.86843 9.12064
O -5.96962 -6.75524 1.09026
O 8.9991 6.2163 -2.35807
O -3.66959 3.10893 -6.62771
O 10.0754 -10.3335 -7.72447
O 8.6242 -4.15411 -0.814097
O -5.5789 -10.399 -6.51955
O 4.41741 -4.89085 -4.65348
O -7.82171 3.96625 -3.25088
O 1.907 -5.03048 -4.79563
O -6.95834 -7.69199 4.32691
O -0.702904 9.70672 6.75469
O -4.75375 8.039 1.11945
O 9.94704 -9.63329 4.27586
O 5.47761 3.59145 4.55131
O 6.13212 -9.98749 0.512702
O -1.23251 -8.41399 0.909681
O -2.5988 -1.82334 7.34703
O 6.66916 8.30652 3.97266
O 9.89213 -7.02273 1.63425
O -0.998412 3.19846 5.19721
O -2.89624 0.375256 -2.8236
O -0.588228 8.28336 -1.62451
O 7.69786 -6.25236 0.36365
O 1.61482 0.209441 3.34418
O -3.91215 6.79084 -3.73336
O -0.643998 7.58567 -6.95493
O -9.88629 2.52813 3.9024
O -5.25207 -5.85514 5.86777
O 2.58163 0.13557 -9.1835
O 1.15294 -5.75431 -1.92135
O 8.12267 1.12091 7.62767
O -1.1375 -8.91355 5.58745
O -4.45318 1.60966 -4.60489
O -1.88903 -6.00136 9.36075
O -5.06507 -8.52833 -4.76037
O -4.32119 -3.15658 0.791598
O 7.44136 9.60799 -7.99574
O -3.70356 -0.76446 2.03522
O 8.75263 6.1278 8.36061
O -2.31084 1.2708 1.18118
O 4.90043 9.12898 -3.71753
O 0.93842 3.90756 -10.6556
O 2.40284 3.00337 1.5903
O 1.00842 3.46518 -1.70361
O 6.71117 8.03399 8.5268
O 8.17135 3.45776 4.47257
O 2.26191 -2.53098 -8.69689
O 0.546878 3.86263 3.25241
O 4.27253 -5.75368 7.59641
O 5.29594 -10.0067 -8.4307
O 6.87065 -7.87757 -8.07677
O 3.09906 3.67333 5.96675
O 8.09458 -8.06695 -5.7858
O 3.08171 2.0869 -0.535388
O 2.06163 7.07142 6.79908
O -4.45836 -4.51384 9.38836
O -3.87555 3.58654 -0.0702968
O 9.91122 -7.01947 -0.981403
O 5.44241 6.16442 2.86837
O 8.65912 2.76593 -0.707181
O 8.42114 -8.83614 0.0353096
O 3.17444 2.93111 -3.14967
O 8.0183 -4.60038 -5.04238
O 6.25783 5.40698 8.76245
O 6.06794 9.30735 6.3073
O 4.19852 7.15285 -2.05729
O 4.16679 -6.10277 2.97918
O 3.34157 -5.0664 -8.20694
O -3.24291 4.99056 -2.11707
O -1.01949 -1.45604 -6.16928
O -0.990329 2.96456 -5.85036
O -6.51813 -3.77615 5.19133
O -6.54723 0.89859 3.23741
O 5.39435 -7.06453 -3.39195
O 6.00291 6.47216 -6.88199
O -2.64845 1.32084 5.89443
O -10.2775 2.90051 -3.29128
O 4.05434 2.44725 -9.37787
O -2.73908 -6.75651 5.4926
O -8.38916 -9.77902 -3.75596
O 4.82783 3.48341 0.946134
O -2.68237 -1.14676 -8.0596
O -8.90641 -0.57444 -4.43619
O 4.99895 2.90415 -5.0384
O -6.54914 2.92472 -0.125224
O 10.1785 -2.15105 2.12052
O 10.4632 -5.00909 -6.14653
O 3.53603 1.90713 4.11796
O 2.89832 -8.06345 4.28852
O 6.4207 -4.7396 -2.96918
O 8.47687 -2.87839 8.71726
O -6.47822 6.11809 4.93274
