582
Atoms. Timestep: 1790001
Si 0.649026 0.0779413 8.56667
O 0.0634989 1.43816 9.368
H 0.394089 1.53066 10.2538
Si -1.33681 -1.82832 10.0443
O -1.30777 -1.54338 11.7528
H -1.82739 -2.10714 12.3138
Si -7.20276 -9.72711 -9.25974
O -8.18114 -9.98425 -10.5383
H -7.91779 10.3552 -11.1515
Si -7.83477 8.38612 -8.61607
O -7.55163 8.33621 -10.2495
H -8.00516 7.62708 -10.6899
Si 7.61322 7.15597 8.55268
Si 4.91628 1.70037 -8.69844
Si 6.48313 5.03119 8.38557
Si 5.76083 4.0442 -8.72065
Si 5.26652 -10.2737 5.17529
Si -0.285839 -3.68627 -7.26223
Si -8.79459 5.51858 5.607
Si 0.631354 -6.60942 -7.09686
Si 3.4306 -5.58122 -5.66832
Si -4.52202 -9.46915 8.76498
Si 1.92199 1.6535 -8.97676
Si 2.05987 2.28241 2.9179
Si -9.688 8.40129 6.25231
Si 6.95202 1.20978 0.662102
Si 0.859702 -10.0577 7.38469
Si 5.23044 -0.104606 -6.28243
Si 4.45304 8.22717 -3.75292
Si -2.31746 6.64134 -2.74194
Si -0.993415 6.74786 -8.63515
Si -3.92851 -7.15816 -4.24272
Si -4.33774 -6.84275 -7.30898
Si -10.2558 6.77137 -7.42526
Si -7.43805 8.54556 2.10533
Si -2.69178 -3.42948 -2.33215
Si -6.92197 -0.466323 -1.50198
Si 8.24604 -8.85932 7.88558
Si 6.79887 7.97114 5.63945
Si -4.52752 2.37536 -8.71868
Si 8.88358 -0.344498 2.58562
Si 9.33196 2.14164 -0.856768
Si 1.48329 -4.67141 7.52696
Si 3.51795 0.991861 -2.03643
Si -2.28042 4.72187 4.76961
Si 9.28712 8.45214 -0.55051
Si 4.8153 -3.01616 -5.25519
Si 0.788591 7.55238 -6.00811
Si 9.37861 8.09814 3.90721
Si -2.04627 -5.69583 -0.297619
Si -5.25893 5.23305 1.06643
Si -8.73363 -7.70457 1.44332
Si -4.59346 -7.52984 3.51683
Si 0.587789 5.71082 -3.57089
Si 0.538259 0.270255 -1.38824
Si -9.90196 -6.47912 3.79038
Si -4.46813 -1.51159 2.38672
Si 8.79726 9.23791 -3.56047
Si -2.33833 -2.97817 0.573464
Si 6.99508 2.95013 4.83733
Si -8.25452 6.28716 -5.22994
Si 0.555906 -8.91314 -2.10986
Si -6.97757 -5.74611 4.7414
Si -9.93824 -2.43158 1.89163
Si -10.1047 -9.19819 8.89584
Si -8.60151 5.06786 -2.36933
Si -4.89665 2.91704 4.47255
Si -4.11055 -0.0674572 -5.10326
Si 2.86939 8.98537 6.10948
Si 0.881655 4.50418 -8.82975
Si -9.23967 -5.75679 -5.40394
Si -3.50224 5.01842 -8.1327
Si 6.26973 1.99122 7.89744
Si 2.09568 8.24518 0.55898
Si 8.18495 6.5608 1.62205
Si 0.788653 -1.78943 3.88241
Si -2.28747 5.2408 0.170774
Si 7.18695 -3.29806 -1.0903
Si 4.33375 -8.81583 2.52362
Si 8.04788 -8.43614 0.353546
Si -0.809018 10.1556 -5.60119
Si -2.01471 -6.46174 4.9075
Si -10.3879 0.611613 5.06483
Si -7.22094 -8.24169 8.88698
Si 3.39856 -0.160791 4.61074
Si -7.76553 -0.906466 6.05016
Si 9.02657 -3.11497 7.10492
Si 4.27466 2.48413 0.659401
Si -3.42765 -10.2924 3.89412
Si -3.77876 9.33565 6.74453
Si -9.23652 6.69737 0.114336
Si 5.93086 5.69057 3.71053
Si -2.79786 9.76707 -3.39341
Si -8.85304 -5.56139 -2.25737
Si 3.9837 -2.92389 7.24558
Si 10.3808 -3.33221 -0.780343
Si -7.34526 -7.62694 -7.13729
Si -4.83032 -4.1892 -4.27683
Si -9.13641 9.15595 -4.41376
Si 2.50051 3.16541 -4.07023
Si 8.58851 -7.94029 4.79124
Si -10.3422 -3.6677 4.70301
Si 8.51408 4.88008 -7.5037
Si -6.80505 -5.33384 7.91904
Si -0.245404 10.2314 0.0586232
Si 9.62494 4.27185 -3.14803
Si 5.87579 9.30188 -6.29712
Si 3.73114 0.117039 7.81195
Si 7.3797 -9.36037 -5.01325
Si 1.38368 7.72684 3.51899
Si 4.49737 6.2057 6.31053
Si 10.1874 -7.93883 -1.94833
Si -3.41277 -0.702173 8.03449
Si -6.10401 3.74479 -1.46492
Si 8.16414 -0.243717 6.91304
Si 2.92329 5.10276 4.00418
Si 2.17507 0.947694 -6.04015
Si 5.64495 -3.98972 1.60433
Si -1.60933 2.95122 -3.7092
Si -6.2801 6.26366 3.84986
Si -5.52788 8.27887 -0.0128388
Si 1.87417 5.6415 -0.943904
Si -7.67215 -3.32552 -5.45528
Si 6.21862 -0.408852 -1.87753
Si 1.05841 -6.6954 0.0895618
Si -2.99879 9.19408 1.29675
Si 9.86297 2.69507 -5.71722
Si 2.92792 -4.18215 -0.0953385
Si -6.82251 -5.52096 -0.0235131
Si -4.72603 -9.35354 -1.99323
Si 9.19436 -10.102 2.72683
Si 7.33322 1.39599 -4.33762
Si -1.58953 -4.49557 8.68023
Si 3.63384 6.04492 -8.26062
Si 3.34335 -10.044 -2.75659
Si 10.09 3.52174 4.42049
Si -8.657 -9.84339 3.45443
Si -6.9383 0.595533 -9.11271
Si -3.47493 -3.70664 -7.13156
Si -2.21696 0.207888 -2.91733
Si -4.27894 6.23876 6.38653
Si -1.50385 6.98696 2.64162
Si -7.16564 9.66634 -1.97507
Si -8.37794 -9.90863 6.56874
Si -3.61819 1.548 2.16567
Si 4.84356 -7.65392 -4.16087
Si -0.957513 -0.280955 5.91425
Si -9.7778 -0.294187 -1.54619
Si 0.970222 -9.5448 -7.74567
Si 0.48368 -0.762453 -7.89653
Si -8.33402 1.60496 -6.43874
Si -6.38096 4.14267 6.75878
Si 6.84446 -6.67894 2.60799
Si -0.204873 3.23296 -0.870262
Si 5.67433 -7.82677 7.26197
Si 2.97718 -6.4145 4.34745
Si 1.35326 -9.02854 2.13003
Si 0.48437 -4.79895 4.49259
Si -0.47642 -9.2562 4.71431
Si 5.38947 -9.93317 -0.251698
Si 6.46535 -5.12993 -3.48219
Si -8.97166 -3.29858 7.3959
Si -1.44581 9.94782 -8.59543
Si 10.0993 4.25103 1.29308
Si 5.05984 8.1563 -0.6529
Si 2.61579 -7.48015 7.33347
Si -2.72606 -7.27413 7.83165
Si -1.77985 -10.1248 8.43762
Si 6.50654 -0.11273 4.33519
Si -0.995316 2.10687 3.85747
Si -8.35544 -0.680683 -4.21523
Si 6.67721 4.44143 -3.5313
Si -4.42052 -7.40964 0.318802
Si 3.11294 8.99904 -7.62488
Si -0.0640902 -3.92217 -4.0405
Si 8.17381 7.48712 -6.07245
Si 8.93489 -6.76401 -4.71236
Si -6.99003 -2.47814 0.686979
Si 2.77371 -3.78113 -3.19219
Si -4.28342 -3.56529 7.45683
Si -1.25379 3.54038 -6.60703
Si -7.48648 10.46 -6.41174
Si -5.76878 -1.69321 -7.19106
Si -5.68546 -3.03044 4.78315
Si 4.28113 5.55866 -5.12518
Si -9.66252 -10.1381 -0.462967
Si 6.45378 -4.77397 6.83989
Si -5.47612 2.6175 -5.66364
Si 0.657585 -2.00035 0.865876
Si 4.91967 5.1193 -0.916578
Si -0.744216 -6.96798 -4.35137
Si 9.35062 9.40473 8.56243
Si -4.71484 9.495 -5.88516
Si -2.23657 0.765133 -7.55305
Si -4.36104 1.19279 -0.896058
Si -4.25015 4.60208 -3.69634
Si -4.07241 -9.6987 -8.53984
Si -5.71163 6.80492 -6.93281
Si -5.51665 1.27587 6.94871
Si 4.93356 -3.8716 4.55038
O 5.7701 2.71068 -9.72223
O 6.57095 6.33525 9.3738
O -8.05955 -8.60441 2.61807
O 0.116145 -9.90095 5.99595
O -3.71385 4.93877 0.776399
O -8.28411 5.42445 -3.90121
O -6.95304 -6.69426 8.78657
O -8.41466 -6.25756 4.32996
O 5.0422 2.94033 -7.64053
O 6.87285 -0.466362 5.86961
O -5.24127 -0.966003 -5.80487
O 1.73864 -8.76924 7.56768
O 7.73665 -5.73332 -4.3226
O 8.02267 5.96081 -6.37858
O 10.4317 9.33817 -3.85887
O -4.29826 -8.92132 4.08512
O 4.86863 1.20542 8.225
O -7.11432 -9.03494 -6.37535
O -0.941247 6.08527 -3.28005
O 8.60669 8.11422 9.22924
O 3.01992 -5.13996 -4.0898
O 4.4651 9.51296 -7.01448
O 6.8312 6.35783 2.52414
O 2.196 -1.22216 4.46066
O -3.10294 0.739608 -1.70079
O 3.58189 0.275455 6.16894
O 9.51213 0.251925 6.19943
O -5.5515 0.130393 -1.00201
O 5.61991 -8.97899 6.09746
O 6.43859 -5.17738 2.23409
O -5.83959 -1.77403 1.53306
O -8.56713 7.69596 1.22033
O -1.15201 3.62716 4.55318
O 9.64397 7.69829 -6.73213
O 10.2297 9.78023 -0.00175468
O 8.15645 0.694114 1.62042
O -4.89122 5.67837 -7.6539
O 6.79366 2.83714 -3.9714
O -2.40762 8.25847 -2.81307
O -9.74916 2.18031 -6.25291
O -6.54834 -4.26169 4.22074
O 8.55626 -9.53382 1.38019
O -4.70181 -5.78536 -4.02687
O 0.192393 1.67622 -0.660051
O -8.4219 -2.2411 -4.59088
O 5.03645 -9.90794 3.62334
O -10.0603 -1.7972 -1.07066
O 2.06717 1.89714 -7.38843
O -5.78718 -6.74164 4.21224
O -1.44829 3.86041 -0.0397417
O 10.452 10.3219 9.3889
O -2.56437 -1.03515 9.3516
O 8.21868 4.99162 -3.32038
O 3.55483 8.44211 -0.061264
O 3.44069 4.1884 -4.82097
O -9.32567 5.90467 -6.44715
O 2.61349 -3.58338 7.70042
O -7.66997 3.80065 -1.986
O -7.12819 2.45918 -5.77763
O -4.73124 -3.57786 5.92063
O 0.886622 9.08045 -0.0985369
O 6.29246 -4.21764 5.31919
O -4.96427 3.90705 -4.93659
O -4.09827 -8.0104 8.21668
O 5.30952 6.56217 -0.336724
O 0.165994 -0.0671862 7.0435
O -6.02453 3.69971 5.21978
O -3.89697 3.79964 -9.12105
O -6.15981 -0.578459 -8.25374
O 5.5329 -6.43107 -3.37026
O -7.61814 9.99297 -8.10242
O -3.91491 -7.45816 -5.85913
O -3.27613 -2.20133 1.56584
O -10.0635 4.81137 4.96196
O -3.51876 -10.3201 -2.28233
O 10.3145 -5.07808 4.11869
O 9.89515 -1.34373 1.82167
O 0.289295 -9.86766 -6.28733
O 4.12351 -7.70821 7.8807
O 3.79268 -8.68643 -3.59227
O -1.06917 3.5958 -5.04665
O 2.37525 3.70102 3.61607
O 7.78604 2.20445 -0.252992
O -5.80208 1.75133 -9.39476
O 6.21858 9.38231 5.26472
O 2.02382 0.41244 -2.06851
O 9.88873 0.323311 3.68357
O 3.37569 5.35639 -1.36791
O -1.40475 6.14096 1.21389
O -9.74598 -4.24918 -1.75161
O 8.55556 3.36277 4.881
O 2.27574 5.24216 -8.41578
O 7.74964 -7.13837 1.2589
O 7.12948 0.479942 -2.9989
O 4.69294 -0.0365843 -2.25707
O 7.5157 0.926834 7.87163
O -7.09007 -1.90586 -0.782726
O -5.65942 5.31547 2.62217
O -9.76139 5.34169 0.922911
O -0.201458 7.75232 3.2565
O -8.77248 -4.36266 -5.97109
O -1.8544 -9.88572 4.09887
O -4.06225 7.80381 6.87871
O -3.1067 0.18715 -6.33147
O -4.61902 7.94158 -6.47223
O 1.91404 9.67924 7.22076
O 10.1734 3.71461 -4.50755
O 9.14567 -8.04444 -0.772079
O -0.018206 -1.1879 9.35368
O -4.75989 10.2687 7.71922
O 5.90494 4.70437 -2.0983
O 3.75931 7.62755 6.55467
O -2.63255 -6.551 6.39685
O 0.651688 -3.39611 3.78076
O -0.428535 -9.85073 -1.28625
O -1.67107 10.0992 -6.98761
O -2.18667 1.90687 2.71924
O 1.27037 3.04541 -9.45173
O -8.87193 7.71267 -4.97427
O 8.30397 -8.07957 -5.4287
O 4.341 -9.98883 -1.51686
O 6.44567 4.25444 4.15582
O -8.72253 -8.62302 9.48844
O -6.01685 2.70394 7.45478
O 2.13623 10.3293 -7.8338
O 0.993749 6.28968 -5.01305
O 6.78277 -4.52884 -2.0179
O -3.77906 -5.31579 -7.59458
O -6.6837 -4.07825 0.592911
O 2.73727 -7.13648 5.77776
O -7.97084 4.55218 6.64689
O -3.8722 -3.80616 -5.52644
O 5.8817 -3.92518 -4.39817
O 9.31421 6.94564 2.76827
O -9.71006 -9.47138 7.33829
O -3.09206 -9.9772 9.4465
O 6.14127 -8.62882 -4.33638
O 10.1892 -6.10158 -5.35761
O -5.37051 5.29107 7.20726
O -6.77483 -1.98038 5.36761
O -8.85315 10.1312 -5.6763
O 8.7809 1.65782 -4.95982
O -1.85418 1.43441 -3.90327
O -7.50149 -5.33631 -1.46267
O -0.0625106 -3.67842 -5.6366
O -10.2763 -3.5467 0.758905
O -3.84233 9.79149 5.17417
O -7.99039 9.37559 -3.33777
O -5.34456 4.76606 -2.52184
O 2.91857 2.45287 1.55379
O 9.51234 -2.95567 5.52365
O 4.36016 5.51328 3.41803
O 10.4803 -3.37212 7.85108
O -1.24317 8.38121 -8.81573
O -3.28962 1.24605 -8.69683
O -0.212032 -5.54046 -3.85599
O -6.34926 9.09784 1.08252
O 3.19381 -3.87489 -1.63341
O 8.36034 -10.4467 8.0243
O -0.236248 -10.2406 8.58893
O 3.71089 -2.69596 -4.10931
O 4.3008 -6.88697 -5.50914
O -0.186525 6.97972 -7.19004
O -0.065188 -8.10691 -3.41886
O -2.4978 -4.53443 0.756518
O -9.18788 -3.79958 5.85698
O 1.80106 1.94318 -4.86056
O -3.52493 10.2892 2.34906
O 6.76244 -9.04089 -0.439303
O 10.1484 8.79099 7.29116
O -10.4544 7.44829 -0.601319
O 10.1036 3.06707 0.203699
O -7.08727 -0.516658 -3.09837
O 5.65682 1.84003 1.311
O -4.57273 -8.20636 -3.21343
O -3.48576 5.99497 -3.70758
O 1.21018 -0.275391 -6.51611
O 10.1541 3.64725 2.81708
O -3.84644 9.64376 -4.61103
O 0.0391367 -5.23542 -7.72654
O -8.3228 6.09776 -1.10514
O 5.18527 -3.22995 3.03403
O -9.21923 7.69507 -8.25509
O -8.79806 -5.72437 -3.84601
O 5.79871 5.28506 -4.61719
O -5.97046 -6.81725 -7.25687
O 5.82984 9.48612 -0.145029
O -4.6561 -7.62132 1.89977
O -4.01832 8.74812 0.180791
O -1.40241 -3.19189 -3.32811
O 1.03226 -7.97777 -7.81922
O 5.7966 6.6714 5.18483
O -4.39377 -10.4352 -7.1468
O -2.62681 4.34113 -6.96264
O -9.03809 -0.274021 5.26218
O -8.47998 9.45835 6.65837
O 4.26523 -4.27211 0.784634
O 4.70932 -9.30523 1.0119
O 5.3388 5.41486 7.35723
O 8.38615 -8.31664 6.34793
O -1.45205 2.02736 -7.08879
O 1.84302 6.17449 3.69117
O 6.63768 -1.97289 -1.83357
O -2.32719 -6.97241 -4.06664
O -1.62504 10.4659 -4.32212
O 5.35793 0.450513 -7.77966
O -6.05968 4.35902 0.039915
O 2.0498 8.39595 4.87969
O -9.88714 -2.88451 3.37535
O 1.06589 -7.7318 -1.1456
O -5.11049 6.3562 4.97276
O -6.78942 0.275246 6.65804
O -10.2887 8.39391 4.76874
O 1.82131 6.66329 0.263941
O 4.06802 -5.24686 4.51429
O 5.23083 -3.95742 7.54504
O 8.8393 -3.24863 -0.984457
O -2.25432 -4.88315 -1.70304
O 0.455038 -2.39239 -7.86908
O 9.30331 2.96312 -2.21342
O -1.23239 1.05681 5.03237
O 1.28132 -7.62768 1.38088
O 8.17697 7.65284 4.92974
O -10.2376 -9.97558 3.00913
O 0.70338 -9.10493 3.61829
O 4.10127 -4.1701 -6.11331
O 8.25152 8.09793 -4.57542
O -1.10657 -0.313658 -7.83997
O -2.09972 -6.04628 8.81829
O -8.46029 -1.77618 7.23957
O -8.24593 10.1496 -0.881961
O -4.52598 -2.61041 -7.64951
O 2.07394 -6.04222 -6.4121
O 9.79376 5.69197 -8.12974
O -1.63186 9.68054 0.642913
O -5.52254 6.78707 0.496018
O 6.54049 0.0151566 -0.333334
O -4.367 -1.99287 7.87011
O -7.32814 -9.026 7.37642
O -7.73896 0.202824 -10.3585
O -3.9264 -0.0290431 2.44011
O -2.73455 -2.55563 -0.966267
O -3.95569 -8.11469 -8.31365
O 0.454267 -9.90561 1.18881
O 4.14211 -1.46015 7.94113
O -5.41355 -6.21087 -0.116526
O 6.95647 8.21897 -6.89459
O -4.32066 0.562395 7.86726
O -8.32067 0.273178 -5.49461
O -9.53715 -0.323723 -3.14088
O 2.00449 -6.15269 7.94707
O 1.84293 -9.85312 -2.39894
O 2.08441 8.1746 -6.64251
O -7.98924 9.81065 2.87765
O -2.0031 5.89614 3.72484
O -8.31131 0.160992 -0.949719
O -0.0587624 4.11606 -7.51914
O -3.59057 3.82287 4.56674
O -8.40979 -2.20681 1.42938
O 0.465909 1.92084 3.08129
O -2.72683 -3.9042 7.73431
O -6.34538 -3.86441 -4.68324
O -8.44853 -9.65415 5.03787
O 8.11339 -10.4113 -4.02312
O 4.71352 5.23106 -9.01971
O -6.80937 6.4664 -5.80324
O -2.42745 6.05083 -1.24448
O -2.94229 -6.98004 -0.14739
O 2.81526 -9.58538 2.27631
O -6.67325 7.6382 -7.95353
O 8.50483 -9.2853 3.87057
O 3.46538 1.40462 -9.35813
O -0.811023 -2.68581 0.777629
O 3.39095 2.3567 -3.02463
O -6.25928 8.4673 -1.39144
O -4.13199 -3.55694 -2.99882
O 6.60859 -3.38669 0.459288
O -4.83222 2.51577 -7.17477
O 2.21603 0.192078 8.46631
O 9.52992 -8.46732 8.77014
O 7.55023 -6.95659 4.06042
O 1.83649 -3.09017 0.522481
O -7.91421 -4.23353 8.10172
O -9.63497 -6.87806 -1.75285
O -6.86801 -5.70062 6.34477
O -9.2866 -8.9028 0.513323
O 5.09105 8.10442 -2.2992
O -9.2195 6.87385 6.43241
O 3.7157 0.381085 -5.84562
O -0.744404 3.11739 -2.41342
O -2.33491 -0.666531 6.76456
O 8.36072 7.69738 0.492341
O 8.96248 9.42306 3.09363
O -4.73905 -2.24569 3.80791
O -0.50864 -6.13068 -0.082798
O -0.989951 -7.77824 4.94199
O 3.83688 6.80962 -4.18447
O -6.18471 -10.1003 -2.2505
O 0.716535 -1.36926 2.3344
O -0.209421 -10.12 -8.75921
O 6.82989 -8.30438 8.34858
O 6.92907 7.86629 7.21428
O 10.1557 -7.4834 4.67101
O 1.22259 -3.49032 -3.27675
O -4.77152 2.32255 2.96491
O -4.78239 1.38426 -4.78133
O -10.2025 -9.39333 -1.82438
O 2.8527 1.08453 3.73842
O -4.77329 1.69689 5.57103
O 6.71403 -10.3144 -6.0798
O 0.0349048 5.76963 -9.4425
O 7.91952 -4.26292 7.33115
O -4.8034 -8.69922 -0.548752
O -5.36543 -4.56294 8.11844
O 8.66753 8.85009 -1.97397
O -7.8318 -6.61562 0.669575
O -1.8057 -8.57085 7.87414
O -8.42047 -6.77397 -6.28898
O -7.0231 -2.56695 -6.72332
O 1.99987 8.38087 2.17157
O 1.54582 -5.83323 3.87151
O 3.53759 7.68518 -8.55869
O 1.13449 -4.68524 5.98816
O -5.61119 -9.7905 -9.18862
O -0.0708399 -4.42503 8.15498
O 6.74507 1.48138 4.13429
O 1.21269 0.193003 -8.94786
O 0.704273 -0.918474 -0.244913
O 6.39686 2.58841 6.32151
O 7.16515 4.52234 -8.29289
O -10.1781 2.17722 5.02494
O -0.0811651 8.79442 -5.35215
O -2.8034 -10.4157 -9.23042
O 5.64755 -7.71028 2.54562
O 10.0931 0.781606 -1.11899
O 1.01167 4.26379 -0.630614
O 6.05451 -6.35517 6.86727
O -0.430406 -6.96778 -5.91813
O 3.46978 -7.54974 3.32005
O -7.71814 5.89089 4.54663
O -7.69375 -8.35487 -8.53369
O 9.53883 -7.38735 -3.3237
O -3.19971 -6.66268 3.86874
O 5.47492 8.66519 -4.86807
O 3.38884 5.21609 5.56863
O -7.79929 1.35417 -7.90402
O 5.2867 -1.64938 -5.91272
O 1.20908 6.3685 -2.24012
O 4.08914 -2.87467 5.63014
O 7.61281 -0.865358 3.45342
O -2.66384 7.99732 2.29121
O 4.74591 3.9727 0.187154
O -10.2283 5.07644 -2.42012
O 6.37487 0.670217 -5.37528
O 8.4273 -1.6874 7.44809
O -3.9042 1.64502 0.585299
O 9.11397 3.54523 -6.79553
O 3.48391 9.52729 -3.55254
O 6.37724 3.51905 8.65199
O -2.36705 9.79255 7.38753
O -2.48935 6.11527 -8.6299
O -3.27529 -0.62017 -3.82998
O 8.78632 5.11586 1.21876
O 4.15884 5.93562 -6.74449
O -5.96146 -9.03392 9.48677
O -5.22279 2.44626 -1.45244
O 4.89818 -0.397453 4.13844
O -1.03409 -5.24964 4.6285
O -1.91552 -3.49155 -7.30045
O -3.0326 3.63614 -3.29832
O -0.712483 -0.183683 -2.32095
O 7.89222 5.64278 7.83518
O 3.90296 1.65636 -0.663457
O -1.54509 -3.35846 9.85283
O 2.13263 -5.54538 0.00428085
O 3.88954 10.0941 5.71526
O -2.85329 5.53525 6.02886
O 1.4273 4.26738 -3.57864
O -6.30656 9.62094 -5.79302
O -0.431344 -1.32404 4.81264
O -9.91462 -6.9919 2.31097
O -6.6138 7.60527 3.06601
