591
Atoms. Timestep: 1790001
Si -2.1828 9.83541 -9.68313
O -2.29057 10.1146 -11.327
H -1.49031 10.3179 -11.7969
Si 2.38955 -0.74856 -9.81694
O 2.30339 -1.82312 -11.1152
H 2.68772 -2.68788 -11.0316
Si 4.07056 3.50408 8.82857
O 3.33464 4.45051 10.0998
H 3.71036 5.32193 10.1442
Si -3.02864 8.56786 9.38159
O -2.76944 8.66373 11.0757
H -2.12935 9.32283 11.3172
Si 0.508073 8.41937 -9.56226
O 0.297173 7.68801 -11.1296
H 1.00522 7.08336 -11.3182
Si -4.08568 7.32996 -8.18397
O -3.64939 8.0768 -9.66775
H -3.95253 7.52974 -10.3828
Si -0.249307 0.974025 -10.1245
O -0.501574 1.079 -11.7961
H -0.479926 0.230776 -12.2233
Si 2.20199 -10.1331 -8.96595
O 3.1281 -9.37571 -10.0661
H 4.06079 -9.36822 -9.88576
Si -5.97018 7.53499 9.33959
O -6.44522 8.09225 10.8939
H -6.00265 7.69827 11.6365
Si 4.85127 0.57343 9.91285
O 4.7138 0.505564 11.662
H 3.86093 0.314092 12.0341
Si -1.80805 -10.2514 7.62589
Si -0.102396 -1.75656 -3.37687
Si 9.27816 3.19789 -2.11129
Si -7.468 -6.88144 -7.4556
Si 3.58446 1.46352 -6.00009
Si -4.64518 3.5849 -5.125
Si -7.53817 2.29798 -5.53812
Si 0.194129 -5.23783 -6.53296
Si -6.48273 8.99159 -6.83069
Si -7.73318 8.8423 7.03476
Si 6.3767 2.69578 -5.32241
Si 5.22605 -0.818158 6.21692
Si -0.575469 3.62861 -8.44729
Si -3.60674 4.28335 -7.96509
Si -8.16799 -5.21414 5.98138
Si -9.01219 3.35529 2.39577
Si 2.3502 -4.22699 7.43533
Si 0.521432 2.21395 -5.88029
Si -2.70871 -7.2824 6.98772
Si 6.2945 3.94456 -1.98713
Si 1.01639 -5.4204 2.86368
Si -1.50687 -5.91743 -0.977043
Si -8.11458 -0.225781 -3.82675
Si -6.06578 4.05626 2.1143
Si -7.9344 8.12972 2.17447
Si -1.49026 2.77696 3.16746
Si 7.88767 7.92147 -5.73096
Si 7.34079 0.335622 8.14677
Si -0.950236 4.81687 -1.59123
Si -0.262496 -2.70145 2.53151
Si 1.92084 1.22098 -0.991907
Si -1.48837 7.34552 0.278673
Si 7.74055 -7.9256 1.49184
Si 4.8661 1.55467 -0.441649
Si 1.33011 5.93683 -7.74664
Si -0.39516 -7.34338 4.77467
Si 5.46824 -9.01187 6.63662
Si 5.21621 3.55234 4.75501
Si -2.61975 -0.571041 -8.57835
Si 10.053 9.65091 -6.77155
Si 8.98411 -6.63347 4.16433
Si -6.93823 3.86746 5.85138
Si 7.26036 5.37847 3.33592
Si -8.98183 -3.53296 -1.78158
Si -9.07209 1.88363 6.94043
Si -10.3794 -7.06615 -3.09856
Si -7.00724 -9.04935 -1.98954
Si 3.97714 -1.84509 2.23605
Si 6.69146 -3.50192 5.81575
Si -5.67447 -3.07114 1.91606
Si 2.65704 2.73184 1.46582
Si -3.28909 5.70732 -3.48719
Si 10.2136 -0.026152 -5.49948
Si -4.20061 -5.28417 3.72354
Si -4.65659 -0.586906 6.20099
Si 0.923573 7.56328 -5.3418
Si -4.26982 7.47566 -1.12267
Si -5.52989 -0.280231 3.2862
Si -2.82145 -8.99129 -7.41896
Si 2.65125 -1.24462 -4.59771
Si 5.10547 0.0838722 -8.45882
Si -5.65642 4.50219 8.65274
Si -3.6178 7.0764 4.82498
Si -5.86037 -6.55431 -0.498745
Si 10.1665 4.81355 -7.24083
Si 9.45256 3.17192 4.12477
Si -3.42217 -3.58876 6.33601
Si -9.05151 7.26196 -6.25493
Si 9.02021 0.634333 -0.312142
Si 1.02661 -9.29052 6.91271
Si 2.56128 -6.9335 0.498609
Si -7.00115 6.18984 -0.0524971
Si -8.92802 -8.49407 2.38101
Si -9.68086 -1.14294 -0.00725317
Si -4.24539 3.43808 4.49072
Si -4.9194 1.39247 0.827232
Si 7.04835 5.17508 -7.23541
Si 2.85511 -1.06024 8.09724
Si 3.96094 10.3524 -4.04807
Si -4.75772 -4.34505 -5.33756
Si 1.6266 -1.76001 0.191189
Si -9.09263 -4.29537 -6.94712
Si -9.67708 10.3412 -1.35318
Si -4.32957 -2.17932 -0.777046
Si 0.104045 10.1085 0.547799
Si 7.05352 8.73659 -0.642371
Si 1.56553 -8.48811 -4.03642
Si 9.66264 -9.96378 -3.90331
Si -0.680829 -3.61641 7.7527
Si 2.42753 3.67584 6.18146
Si -9.58115 -7.8445 5.29242
Si 2.32341 -5.45833 -4.13591
Si -10.2281 10.3492 6.25567
Si -4.97974 1.4909 -8.54864
Si 10.3233 1.89965 -8.1508
Si 6.75224 9.80285 -3.52955
Si -5.55226 -7.05194 5.61402
Si -7.88948 0.974708 -8.52913
Si -8.88534 -2.52163 7.18526
Si -0.19336 -0.579533 7.76799
Si -1.60931 6.776 7.31151
Si -0.962727 -0.597742 -6.0576
Si -1.12179 5.99131 3.2264
Si 1.25776 -2.30686 -7.24843
Si 6.35285 -6.1857 5.65832
Si 3.11618 -7.21975 7.3934
Si -1.93006 -4.99809 1.74749
Si 6.6381 4.47852 7.37
Si 0.377487 -8.24191 -1.21316
Si 4.26476 6.0842 -6.88693
Si -3.93697 -4.87483 -2.3238
Si -9.82532 -0.53723 5.09029
Si -2.85869 4.1017 7.21074
Si 2.59828 8.36127 0.38143
Si -4.15851 -3.29814 -8.1446
Si 8.31371 0.69651 2.54195
Si -10.2108 3.67731 -4.50525
Si 3.14164 5.8974 1.84948
Si -6.99271 -2.0627 -7.83458
Si 7.23192 2.12405 -8.17815
Si 7.73587 10.053 6.19878
Si 3.61786 7.47286 4.64856
Si -6.35671 -10.1334 2.22987
Si 5.58522 -5.85935 0.540912
Si -6.84219 6.77675 4.79177
Si 9.12893 -1.91395 6.84011
Si 5.30341 0.633247 3.4162
Si 0.927728 6.32999 5.64051
Si -3.94783 -8.79562 0.585298
Si -7.20027 -0.194793 8.21381
Si -9.72598 -4.52664 3.38608
Si 6.05713 5.98295 0.560954
Si 9.99689 7.81349 -0.855327
Si 6.48956 -3.93291 -1.89859
Si 0.321164 -8.32977 -7.04031
Si -5.99316 -10.018 5.42405
Si 7.61607 10.2731 2.99166
Si -1.9654 -0.149776 -1.59311
Si 6.69628 -0.93283 -1.19015
Si 10.2631 6.71007 -3.87362
Si -5.25689 1.552 9.6969
Si 3.61327 -6.33153 4.30759
Si 2.81548 7.72592 -2.81311
Si -8.42081 0.293293 2.42511
Si -9.79492 5.09646 -0.233235
Si -8.62796 -9.67611 -7.2349
Si -5.7343 -0.0539451 -5.79294
Si 1.2372 1.65655 4.19207
Si -3.14285 10.0601 4.94793
Si 9.42826 -2.29257 2.26605
Si -3.01864 -4.97964 8.94946
Si -4.30284 -10.4648 -1.95378
Si 6.43178 -1.99795 -6.43581
Si 6.54172 -3.58186 2.57682
Si -2.67296 1.10769 8.07677
Si 4.61102 -3.56856 -4.49687
Si 10.4515 -8.00848 -0.117587
Si -6.10106 0.147422 -1.61723
Si -7.72374 -3.34107 -4.39408
Si 1.30678 3.40663 -3.06969
Si -4.39135 -6.23405 -7.72396
Si 9.33765 -4.23242 -3.33181
Si -1.65651 -9.28855 2.63171
Si 3.14159 10.5047 4.96263
Si 7.31498 0.197235 -4.17285
Si 9.18462 2.87827 7.33152
Si 9.41204 -2.87432 -6.36337
Si -1.89571 2.25284 0.0527594
Si 3.94402 5.05564 -3.79959
Si -7.94992 -4.70734 0.833992
Si -4.06086 10.2718 -5.08417
Si 0.790745 -4.06563 -1.98682
Si 0.440915 -1.09793 4.83919
Si -2.17684 7.82793 -5.63169
Si 3.41027 9.09582 -6.67758
Si 3.40836 -8.91319 2.41798
Si 6.53534 7.20667 5.76566
Si 2.27395 -3.56125 4.45362
Si 5.26402 9.86133 1.30261
Si -3.98323 0.879653 -3.63152
Si -7.96418 -8.00722 -4.76246
Si -10.4263 9.72149 3.07773
O -0.961203 8.97929 -9.23743
O -9.54057 0.0996061 -4.44674
O 1.38759 -1.17278 -3.64682
O 4.07091 -6.37781 0.355974
O 3.25012 0.246197 -4.9053
O 10.0042 2.78654 -3.4436
O -7.09049 -3.42627 1.27936
O -1.59005 -3.40396 2.00094
O 3.75334 3.99816 5.2226
O 10.324 4.10437 -1.17127
O 0.440328 -6.71979 -7.19492
O 6.35789 9.39401 2.50087
O 2.48087 8.04931 -1.25415
O 3.80184 -7.51544 3.19447
O -2.91022 6.99734 6.3099
O -4.73777 -2.69502 0.656019
O -9.69045 -7.69869 1.17114
O 3.45923 6.55888 3.32396
O -2.37716 -8.78176 7.32613
O -4.23257 -7.09159 6.54306
O -7.4502 -8.88798 1.98816
O -4.94503 -0.0611275 4.70802
O -9.46267 4.31949 1.16455
O -4.46706 -10.3001 5.5802
O -3.04524 2.64335 3.87207
O -8.92241 -5.01396 2.06297
O -3.90034 -4.46412 5.08274
O 6.39986 0.292767 9.45365
O 5.54611 5.60904 -7.63668
O -7.71737 7.23356 0.884663
O 9.25098 10.3699 6.67236
O 8.04042 -4.05831 -2.41457
O 5.14039 -5.91485 4.65951
O -0.387343 -5.41118 2.02258
O 0.873537 -3.73923 3.26584
O 4.08347 5.65398 -5.32005
O 2.11579 2.12001 -6.21798
O -2.53325 -6.37504 8.23665
O -2.48483 2.60107 7.58565
O -0.316091 2.46258 -9.53345
O -2.49549 -10.126 3.7449
O 4.39855 -8.2165 7.57285
O 8.15536 -3.05422 6.29332
O 5.26697 4.33338 -3.17439
O -8.16076 -8.29406 -7.94349
O 6.29713 -4.8486 6.56702
O 9.72531 -5.7527 -3.45011
O 9.94052 10.4182 -5.28955
O -9.49828 -9.25487 6.04435
O 8.04473 -3.21118 2.08633
O 4.58357 -9.82541 1.89366
O -9.47631 8.58961 2.47724
O 2.76685 -9.69033 3.6897
O -1.06905 6.77854 1.80995
O -8.49227 -5.63135 -7.45713
O -1.01364 6.25666 -0.800414
O -7.1286 -8.65941 -3.52563
O -0.481916 -2.08269 8.20963
O -3.81883 4.06752 -6.37156
O 5.67979 -3.93465 -3.27254
O -6.53902 4.12775 7.40516
O -2.59278 -5.83006 -2.09716
O 5.4284 4.16595 8.35178
O 5.64808 -2.3536 6.23242
O 10.1255 3.93488 -5.86252
O 1.60211 -0.242791 -0.414817
O 2.16121 -1.97944 -5.94548
O -4.41922 2.97464 -8.47242
O 2.03265 -1.62388 -8.50986
O -5.63238 3.02071 9.50071
O -3.48832 1.82841 0.144157
O 10.4011 1.0276 -6.69988
O -6.46338 1.43915 -9.16359
O 0.538661 -6.24191 4.18801
O -10.3705 -9.57706 -0.406001
O 6.63971 -3.62308 4.20269
O 8.58345 8.91406 -6.88835
O 1.18767 -9.18915 -8.10382
O 8.45605 4.33816 3.61079
O -1.09123 4.36306 3.16195
O 3.79066 -2.28008 -4.00555
O -9.8389 8.88622 -0.796463
O 3.91477 -0.27294 -9.55318
O -0.512319 -1.61288 3.67854
O 4.40323 2.03183 9.38865
O -2.52598 6.29548 3.90707
O 4.1739 7.7035 -6.87924
O -0.191876 -10.042 7.63045
O -5.67562 -1.81473 2.94398
O -9.42524 -0.254602 3.56727
O -7.84229 -1.7674 -4.2236
O 10.5045 -3.12309 3.15732
O -8.79979 1.769 2.03595
O 7.01818 -0.492035 -2.74317
O -0.111358 -1.4923 -7.04502
O 1.31322 9.74503 -9.71304
O -3.09909 -1.07686 -0.778624
O -4.24495 9.00296 -1.64685
O 1.36175 0.100867 4.33838
O 8.7892 1.20241 1.12643
O 4.05935 8.87884 0.839091
O -8.23374 5.42578 -0.728405
O 3.24214 -2.64767 3.47844
O 7.35655 8.49245 6.17808
O -2.25027 -0.261488 -6.97228
O 6.28798 5.06453 -0.769595
O -5.77009 6.98064 -0.77007
O -8.13401 -3.12729 -7.64647
O -1.52461 2.33663 1.61724
O 6.32695 9.93822 0.0930519
O 9.94195 -8.4248 -3.68224
O -3.85432 6.54817 -2.31315
O -5.06953 -4.28863 2.80011
O 6.33137 7.4632 0.0379873
O 9.22264 -3.45586 -4.76321
O 3.15577 3.45655 7.58807
O 7.09779 6.78712 -6.42806
O -1.59164 -6.85995 5.78702
O 6.44978 -7.21283 0.853035
O 1.30329 -2.41435 5.14566
O -4.71647 -7.46276 0.19424
O -4.19288 -3.28665 -6.48824
O 5.7701 0.261872 -0.417848
O 5.53154 -3.07682 -5.67326
O -10.1518 -10.2254 -7.58386
O 7.46919 -9.36429 2.05071
O -9.66939 0.837978 5.87816
O -0.230256 -5.03973 -1.23928
O 6.22734 0.159187 7.09141
O -5.76832 -9.9851 -1.66427
O -6.25326 -8.46518 5.65463
O 6.6382 -10.0394 7.02306
O -0.30287 2.00254 4.00999
O 1.63742 -7.34112 -0.729046
O -0.185307 6.98066 6.62614
O -5.49429 -1.36834 -1.51181
O 2.76074 4.29839 1.85081
O 4.4848 5.85925 1.02869
O 8.90576 -0.81954 2.61422
O 6.71535 0.738673 2.61898
O -1.31628 -4.90545 -6.57169
O -1.24516 -8.74331 -7.13911
O -2.70235 0.554202 -2.82495
O -8.31775 -3.98462 7.02278
O -3.50736 4.18735 5.72854
O -1.28333 0.460792 8.32346
O 1.50572 9.43691 0.744679
O 1.9814 -4.79984 -2.72248
O 7.09267 1.82725 -6.54008
O -9.22746 9.31503 7.00814
O -8.76593 3.04851 -4.85415
O -6.22674 5.16459 0.992096
O -3.50128 8.62688 4.51632
O -10.4837 3.5147 -8.13545
O -5.13898 -5.58882 -1.52203
O 8.89487 1.84141 -1.3295
O -6.21958 -10.2494 3.85366
O 8.10892 -10.2648 -3.5467
O 10.4515 6.48183 -0.0925516
O -2.85815 -5.56888 2.88411
O 8.70245 5.36316 -7.51782
O -4.19442 5.74953 -8.36526
O -2.00249 7.55079 8.63068
O -10.4516 0.118013 -0.448261
O -6.75565 -5.7516 0.54797
O 2.29133 -7.02816 -4.1199
O -5.43001 9.62095 -5.70864
O -8.04728 1.06796 7.8306
O -2.28007 -5.40624 0.31838
O 5.40324 -10.2612 -3.63219
O 10.2427 -2.07007 0.856871
O 2.01929 2.07015 2.78457
O 0.871701 6.19897 -6.19769
O 2.27759 6.96347 1.06075
O -3.57812 -9.64417 -6.1229
O -5.9761 -6.57465 -8.06375
O -7.43096 7.36533 3.46129
O 6.8133 4.14689 -5.80606
O -1.66753 5.11192 7.40186
O -0.653249 8.01673 -5.51865
O -5.99124 -0.412798 7.13693
O -2.89381 9.16717 -5.1351
O -6.50637 -1.28709 -6.47884
O 8.12562 4.06719 7.73063
O 1.74654 2.28688 0.218711
O 6.13597 -5.20204 -0.82219
O -8.2384 2.96656 6.05932
O 7.54907 -10.4531 4.61429
O -3.83329 -4.23233 7.74949
O 8.78278 1.77064 -8.53263
O 1.61219 7.51871 -3.87371
O -6.70797 -5.85599 5.90218
O -7.52639 3.84678 2.75154
O -5.21094 6.79209 4.75474
O -0.995237 -1.4197 -4.69751
O -8.63392 -4.52065 4.5874
O -9.43593 1.29945 -8.98581
O 7.81844 -6.06346 5.12832
O 4.31252 -0.248817 2.50311
O -5.31595 0.854109 -7.05542
O 3.36301 9.03849 4.4151
O 7.02427 8.82134 -4.7492
O -4.14787 -2.14666 6.20066
O -4.74495 0.43758 2.08491
O -0.127028 0.713253 -5.76424
O -7.49829 7.651 5.93766
O -0.858208 -1.11 -2.15324
O 0.334571 -9.74977 -0.587495
O -4.0288 -10.2378 -3.55994
O 7.01424 3.67666 -8.29971
O -3.16975 -2.09577 -8.66059
O -2.75965 -10.1604 -8.58215
O -4.89517 4.28203 3.20883
O 2.28521 7.10935 5.56477
O 10.4077 -3.87549 -7.12068
O -6.04308 5.92397 9.31572
O -4.66583 -5.61196 -6.25594
O 6.7327 1.74258 -4.09959
O -7.13496 -7.22643 -5.88846
O 2.58612 -8.33239 1.19591
O 4.07394 9.97464 -5.56945
O -9.92899 8.46938 -6.77828
O -4.10703 4.54668 8.1432
O 6.3231 -2.48174 -1.12746
O 8.84241 0.150717 -4.66494
O -7.51755 7.77824 -6.48081
O 6.22372 3.65523 6.0006
O -10.4391 5.12806 -3.78681
O -3.68488 -5.21574 10.2702
O 6.29467 1.04985 -8.86682
O 10.0577 -5.44938 3.88251
O 0.456511 2.98691 -4.43478
O 1.37476 -2.91538 -0.942858
O 9.07938 7.21015 -4.79868
O -8.27545 -9.95252 -1.55148
O 10.1357 -1.51098 -6.06325
O -2.1686 9.94497 6.32326
O -5.58934 2.6829 1.33764
O 3.76443 -0.401535 9.29473
O -2.68165 6.62192 -4.65139
O -5.16015 0.973844 -2.60538
O 5.97552 -4.8567 1.76366
O -0.335444 2.92728 -7.0361
O -7.63007 -0.683641 -8.45123
O 0.723231 -4.31805 7.53058
O 8.12643 -0.645472 -0.479402
O 2.65776 -5.18238 3.69489
O -4.97086 -9.78755 1.39193
O 1.03258 -5.06444 -5.14187
O -1.80591 -3.5126 6.49585
O -0.99557 -8.12248 3.54621
O -7.94389 -3.85707 -2.88815
O 8.31453 -0.985264 7.83252
O 2.89163 5.62171 -7.64207
O -7.84633 1.80378 -7.09726
O 0.903437 -3.89637 -7.32377
O 5.76189 -1.21456 -7.70338
O 1.25045 0.341602 -9.9406
O -4.48003 8.08343 9.02669
O -6.9967 0.333055 3.17711
O -0.334818 -0.565022 6.14481
O -3.1046 7.36071 0.0609348
O 3.57258 -4.72413 -4.72673
O 5.04286 2.04337 4.11335
O -6.28934 -3.80803 -4.97508
O -8.79553 -4.51162 -0.498292
O -1.28097 0.978686 -0.700907
O -8.60294 -9.19259 -5.65499
O -4.62017 -0.159821 -4.65854
O 2.91069 -5.72585 7.9274
O 2.73453 3.98022 -3.52606
O 9.69847 -1.04849 5.55658
O -8.94227 -7.78787 3.79839
O 3.66263 8.96905 -3.29536
O 2.1405 -10.2748 6.19875
O 1.3643 4.86056 6.07985
O -3.52914 -7.58163 -7.77918
O -2.05873 4.95014 -2.80869
O 0.384338 4.8998 -8.45523
O -0.586009 -10.1623 1.82512
O 8.28589 1.60641 7.76973
O -10.3037 2.54195 7.71567
O -9.04594 -7.10228 -4.01075
O -10.1478 3.41973 3.46339
O 3.73171 -0.688775 6.81833
O -3.96588 -4.86021 -8.52749
O 1.96639 8.59997 -6.11712
O -8.12305 -1.51611 8.23668
O -6.12302 3.07677 -5.45804
O 8.29689 -7.12527 2.80517
O -7.53407 0.172729 -2.43022
O 6.20718 -7.68375 6.09898
O -10.3255 9.71587 4.71475
O -8.80401 -3.94833 -5.34995
O -6.77375 -7.64387 -1.28846
O -1.61236 -4.21284 8.94423
O 4.53125 -9.88997 5.55697
O -9.39764 7.19098 -4.68844
O 7.1938 6.55465 4.4365
O 5.44619 -0.276709 4.77526
O -3.9142 2.25937 -4.45218
O -5.4137 8.15488 -7.78592
O 2.77559 -2.70574 8.05252
O 9.34753 3.14752 5.69326
O 2.73753 -9.61235 -3.83804
O 4.15031 2.335 0.834967
O 0.538265 -2.04004 1.3211
O -7.12377 0.735463 -4.89944
O -2.53108 9.95848 8.84198
O 5.8709 4.55739 3.68327
O 0.878615 -8.72985 -5.50819
O -1.51131 3.65043 -0.591818
O -7.50357 10.1824 -7.25746
O -9.76905 -9.87652 2.67033
O -5.68223 -2.66808 -8.4269
O -10.2692 -7.27283 -1.5041
O 8.92777 -7.84865 0.420143
O -4.04118 -4.57347 -3.88335
O 8.87134 1.71951 3.6722
O 3.53164 1.15511 -1.25911
O 7.07369 5.66398 1.7641
O 3.13872 -6.96641 5.74447
O 10.0135 7.3248 -2.41275
O 7.90254 -2.57761 -6.81088
O 6.67928 -0.786334 -5.28133
O 1.89166 -8.21586 7.73424
O -6.35377 0.473894 9.54712
O -4.41433 4.75423 -4.02232
O 8.6291 8.4672 -0.485665
O -3.779 -3.40541 -1.68835
O -7.11572 5.24422 5.13857
O -10.4424 10.3041 -2.78722
O 7.82854 3.83036 -2.48106
O -10.4265 -3.55998 -2.55251
O 0.43895 -8.47014 5.62851
O -9.63128 5.90541 -6.98899
O -5.00872 -6.59295 4.14854
O -5.89239 0.660418 -0.180204
O -9.08343 -6.61677 6.14627
O -3.47574 0.250955 6.91695
O -3.797 1.18794 9.30573
O -2.06438 4.21812 -8.45638
O 9.0644 9.68771 2.77761
O 0.442026 4.48132 -2.24333
O 3.02124 -1.933 0.976068
O 3.55634 6.33855 -2.85998
O 0.554386 -8.41506 -2.83078
O 6.5579 6.01215 6.85229
O -7.06007 8.1352 8.28574
O -8.97611 -2.09277 -1.07896
O 9.85763 -7.67964 4.93048
O 5.71628 2.6371 -1.26437
O 1.32463 2.0165 -2.20004
O 2.83587 -4.19079 5.90987
O 1.37323 -0.421017 8.03824
O 4.75904 2.42973 -5.58797
O -10.4972 -2.50065 7.40632
O -0.825795 8.84856 0.209301
O 0.0983012 6.39096 4.21926
O -7.10928 9.50256 1.84605
O -5.63521 3.06906 5.25688
O 1.87341 2.43631 5.46552
O 5.44021 -2.42456 2.26712
O -1.33034 -0.0510874 -9.47749
O -0.0105934 -3.27593 -3.091
O -0.901691 -7.41977 -0.831555
O -8.82392 -1.62651 5.72077
O -6.86134 10.0365 6.4044
O -2.91942 7.54715 -7.09652
O 1.79101 -6.06854 1.58361
O 4.22035 0.772355 -7.32584
O -3.80518 0.467915 -8.95411
O 5.00191 7.41748 5.40074
O 6.76602 8.95373 -2.20334
O -8.58158 -0.599572 1.06684
O -2.68699 -8.69716 1.53906
O 1.12168 7.31073 -8.5861
O 3.12282 10.0224 -7.98175
O -3.59642 -9.52135 -0.815795
