594
Atoms. Timestep: 1790001
Si 9.62175 7.02842 -8.34158
O 10.1784 6.55935 -9.88922
H 10.0152 7.23176 -10.5401
Si 6.56361 6.40797 -8.78123
O 6.43894 6.05197 -10.403
H 7.23928 6.08898 -10.9135
Si 7.11744 -9.32044 9.75189
O 7.80602 -9.31775 11.3078
H 7.65941 -8.54878 11.846
Si -4.77724 -9.95278 6.90113
O -3.87124 -8.88864 7.92479
H -4.36223 -8.53613 8.6577
Si -0.456021 7.56909 -9.23298
O 0.23052 7.85899 -10.7616
H 1.15039 7.63463 -10.839
Si -6.82731 -7.82928 7.05116
O -6.14601 -6.93481 8.37779
H -6.74195 -6.78119 9.1015
Si -8.68984 -1.60916 9.78465
O -8.41637 -1.77269 11.4768
H -9.14188 -1.6803 12.0831
Si 3.06724 -2.50432 -10.1526
O 2.8222 -2.42371 -11.8489
H 2.75365 -1.57152 -12.2631
Si 5.07298 9.2784 9.19172
O 4.75466 8.3399 10.5835
H 3.84071 8.11796 10.7175
Si -3.47504 6.8707 -9.13228
O -4.28654 7.35995 -10.5468
H -4.18372 6.78014 -11.2922
Si 5.29604 -4.85833 -9.95646
O 5.56149 -5.21407 -11.6323
H 5.10181 -5.96686 -11.9852
Si -6.45539 0.649572 9.56058
O -6.45749 0.70066 11.2936
H -6.38134 -0.12575 11.7559
Si 6.59209 -3.74188 -1.22963
Si -8.62154 0.357227 5.28345
Si 7.4124 10.378 -2.3886
Si 3.38144 -9.78768 0.682127
Si 8.40329 -7.10042 0.291432
Si -2.56576 5.03615 -3.3544
Si 5.59814 -3.79179 9.19524
Si -5.07793 -10.3098 3.87566
Si 2.58244 0.875338 -2.20495
Si -9.45747 6.2645 1.45788
Si 0.674833 7.90239 -1.12435
Si -1.96954 -0.136205 -0.355601
Si -7.53848 3.41659 -6.66192
Si -5.04259 -0.835789 -6.24707
Si -3.28694 -5.72364 5.9207
Si 5.03421 -0.0414045 7.55894
Si -6.86916 9.75578 -0.75335
Si 4.27869 0.0561666 -8.55138
Si 0.581223 10.1962 0.945413
Si -9.06186 -0.68899 0.846518
Si -0.184846 0.487308 2.01027
Si 10.1202 1.49501 -2.71321
Si 4.40924 8.91765 2.43948
Si 5.16412 1.46249 -0.81097
Si -9.16604 -6.257 -6.8656
Si -9.43096 9.42084 1.2838
Si -6.58543 -3.62976 3.90064
Si 4.2357 10.1074 -2.17792
Si 4.54897 6.30127 1.13646
Si -10.2794 -5.0918 -4.3867
Si 10.2899 -1.0438 -7.4306
Si -5.3744 -6.90359 1.41077
Si -1.61887 -5.44781 -7.90632
Si -2.8919 -8.11897 -7.64323
Si -6.7748 7.07358 -2.44629
Si 9.34286 5.21424 3.46378
Si 6.38718 -1.11083 10.3462
Si 7.11538 -5.83138 5.86651
Si 2.29987 4.7182 5.1261
Si -9.65583 9.51435 6.40559
Si -0.554311 -6.67459 0.991518
Si 6.61113 4.65335 6.29482
Si 3.04189 2.89329 -7.74893
Si -3.80449 2.10121 -5.99689
Si -5.68049 -6.6375 4.30944
Si -5.62408 -3.67641 6.78478
Si -0.599603 10.3306 7.81616
Si -8.6584 -9.28019 -6.966
Si -4.81027 6.46415 -4.84914
Si -5.85326 3.33689 1.60503
Si 1.59157 5.64024 -7.61302
Si 0.760682 -2.84633 6.30735
Si -9.72201 -6.83613 7.18418
Si -1.18501 -2.67883 -3.8163
Si 0.700609 -1.50514 -1.64659
Si -5.07865 6.02038 8.21796
Si 3.70996 -6.47664 -5.52273
Si 4.58169 -4.29756 4.66482
Si 6.35283 4.69063 3.10866
Si -7.99249 0.285017 -6.66253
Si 7.32367 -0.467628 -7.7561
Si 2.57899 -8.51916 -3.43326
Si -9.99053 -9.15519 -4.02767
Si 10.147 -2.65245 2.5798
Si 5.41351 -1.65675 3.11936
Si 2.64763 5.17512 -3.52141
Si 10.4594 2.15367 0.975653
Si 4.82991 4.56521 -1.39437
Si 3.89669 2.83194 3.34036
Si 4.43739 7.70412 -4.25042
Si 7.8987 -8.26512 -4.27518
Si -9.71637 6.52338 -3.47184
Si 6.43429 5.49138 -4.00423
Si -9.80491 -7.40542 4.10855
Si 8.85802 -10.2748 0.369179
Si 9.29063 -1.26615 8.93859
Si 0.0738697 -1.25901 -6.1671
Si 7.0224 -3.71842 -7.75717
Si 5.73986 4.21275 -6.82426
Si 5.07411 -7.52921 -8.26226
Si 9.62867 9.1208 -4.05816
Si -3.4412 7.56602 1.08443
Si -3.69049 8.81592 -6.62081
Si -7.67478 -6.18192 -0.279022
Si -9.69475 4.44534 -1.12756
Si -3.01447 -4.72809 1.40576
Si 0.892751 -7.75839 3.61591
Si -2.59912 -7.91873 -4.46574
Si -4.12812 -2.4867 -0.610841
Si 8.31607 -8.50084 4.7681
Si -8.11456 0.721717 -3.54059
Si -0.885528 1.59865 -5.06421
Si 4.81014 0.370805 -3.75258
Si 3.93422 -7.19511 3.87484
Si -1.71624 1.42556 4.42015
Si -5.51399 -7.71831 -4.21105
Si 7.99398 -3.2958 7.05605
Si -3.16273 6.32467 5.79953
Si -0.953357 4.32363 5.00913
Si -5.48468 -9.57685 -6.78822
Si -5.3605 7.68308 4.4378
Si 3.51437 -2.68793 7.15263
Si 2.18118 -2.4817 0.876924
Si -8.32628 -10.0713 3.91142
Si -8.77981 -1.74102 -2.11145
Si 1.54488 -10.1525 -5.80263
Si 8.81101 8.09498 5.00687
Si -5.78065 1.06099 5.97659
Si 1.02681 2.49299 -0.0965767
Si -4.64056 -9.72797 0.802417
Si 8.31883 -5.88609 -2.66379
Si 2.46105 9.99719 7.38452
Si -6.08852 -1.3946 1.62636
Si 0.553387 -2.31556 3.36299
Si 0.575361 8.68435 -4.00796
Si 4.99048 -3.72655 -5.46851
Si 6.70675 1.64895 -5.5616
Si -3.8461 -3.58599 -6.41003
Si 7.64872 -2.16786 1.0967
Si -5.92603 2.90813 -3.98572
Si 4.0609 7.78016 -7.42071
Si -8.53911 -3.97887 7.71815
Si 9.58609 0.792203 6.51173
Si -1.75458 -9.27097 -0.387618
Si 9.82821 9.92058 -7.20687
Si -8.482 4.55915 5.99872
Si 7.3625 10.021 3.09235
Si 7.12466 -9.40709 -7.14065
Si 0.907365 -5.28524 -6.19679
Si -2.34056 -3.47454 4.20602
Si 9.83022 -1.23276 -4.27918
Si -9.14869 -2.64091 4.9581
Si 3.49056 0.29915 1.69007
Si 4.08675 -10.2281 -7.66015
Si -4.65661 0.980036 3.13748
Si -7.77822 -8.55961 -2.12329
Si 4.21886 2.70601 6.50444
Si 2.05005 2.51256 -4.9375
Si -0.805684 -9.81641 4.86161
Si 10.0138 -3.99328 -7.10135
Si -1.55135 2.35336 -2.06717
Si -6.5509 4.28201 -1.31875
Si -1.49581 9.11612 2.84775
Si -4.42917 -0.972271 7.7997
Si -10.1195 5.0226 -6.15294
Si -3.98162 -2.3076 -3.72494
Si 0.077246 5.75706 -4.75415
Si 1.45594 -6.46679 -1.25867
Si -1.08261 10.2515 -7.50361
Si 3.45223 -7.91318 6.76177
Si 9.56354 3.91043 6.15558
Si 3.21969 -1.28226 -5.90641
Si -6.42332 -5.00159 -5.63077
Si -1.19523 6.07807 2.52509
Si -6.23164 6.28896 2.06811
Si -6.20726 3.31802 7.94265
Si -2.39267 7.72851 -1.72348
Si -8.53023 2.79607 3.24181
Si 1.42586 5.55779 0.823845
Si -7.56929 -4.46172 -2.84078
Si -3.22863 8.55191 7.90259
Si -4.97902 4.63056 -7.4525
Si 6.07906 7.61732 6.6984
Si 0.96968 -6.03327 6.23964
Si -7.38318 7.38126 6.7688
Si 8.25233 0.7158 -0.223658
Si 5.72947 -6.77104 8.65711
Si -1.91344 -1.19878 6.22953
Si -1.40565 -7.81099 7.07151
Si 3.26576 7.77988 5.12888
Si 6.8717 -1.9115 -3.56266
Si 9.45247 -9.24852 7.59621
Si -10.1986 -5.57075 1.53642
Si -0.651516 -5.56924 -3.47455
Si -1.92802 10.4066 -3.20397
Si 0.407541 -3.17138 -8.40955
Si 7.24435 -0.641094 5.41942
Si 5.28361 -7.23276 1.16356
Si 3.86434 -4.73812 -0.270565
Si 8.77847 3.68639 -4.3121
O -5.98958 -3.06838 5.34759
O 7.36858 -9.19303 -3.07795
O -3.10322 -9.67556 0.323949
O 9.53662 -8.57713 -4.20701
O -4.00686 -5.99053 1.53596
O 5.06915 -7.4516 2.7773
O -2.17686 2.11315 -5.80748
O -9.99834 -6.33034 -5.44084
O -6.43779 5.86416 -1.40266
O 9.6469 9.40714 -5.67663
O 0.765558 1.33309 1.04053
O -10.3443 10.3022 -3.59786
O -5.07339 -2.49594 7.74655
O 8.24202 10.3453 -0.995929
O -0.610689 10.2715 6.14932
O 6.5602 -6.44678 7.24331
O 8.59263 -2.54168 2.2844
O -8.50465 -2.9766 8.96731
O -5.90372 6.92763 -3.74269
O 3.05989 3.81698 6.31547
O -9.79497 2.85831 2.21096
O -0.902525 -2.95219 3.58208
O -6.59726 -0.608778 -6.61018
O -3.36606 7.79565 -0.509353
O 0.690982 -6.53299 4.63084
O 6.39558 2.69794 -6.65274
O 10.4937 -4.00513 -5.54042
O -4.44974 -4.75904 6.56767
O -9.63825 7.8773 1.6019
O 1.4401 -3.03057 2.21336
O -3.99072 7.75356 -5.37098
O -8.15424 9.48047 0.242165
O -6.59739 8.44784 -1.6259
O -6.09214 -2.72695 2.61917
O 8.29176 -9.58601 8.68063
O 3.82782 -0.59186 -4.55595
O -5.06829 7.28072 1.4475
O -9.99989 0.414452 5.98802
O 6.15956 -0.454904 11.7092
O -10.3865 -4.03067 1.94441
O 9.54671 2.36901 6.63481
O 0.786017 -4.43365 6.36612
O 0.509489 6.49857 -8.49957
O -3.6803 -3.46835 -4.80611
O -4.03177 6.73616 4.53014
O 2.33409 -6.77032 6.5664
O 10.4132 -2.62882 -7.77368
O -2.80656 -7.75819 -6.0847
O 3.68018 -2.8325 -5.83972
O 7.99575 -1.22276 9.89392
O 5.53221 3.57238 6.79409
O 6.36901 4.89361 4.67545
O -6.23047 -9.28688 7.141
O -0.692251 -2.40453 -5.32692
O -1.50663 -6.84835 -3.9993
O -5.53663 -8.96362 -5.29272
O -3.06876 -1.25637 -0.479595
O 5.46388 -5.39605 9.42498
O 0.383343 -5.21751 -4.66604
O -7.83127 6.06786 1.53633
O -9.26215 -0.393009 -7.51074
O -0.431192 -5.88324 -6.9358
O 6.89976 -7.08417 0.795834
O 3.81651 -5.55925 4.01062
O -1.49785 -5.40452 1.24288
O 0.132864 -2.34644 -2.88139
O 6.5832 -4.28848 -9.19875
O 6.47623 -0.86914 4.08085
O 4.38092 -5.13008 -5.01683
O 6.15096 -0.433801 -3.5434
O -3.09017 -3.89549 2.79035
O -7.98066 6.10182 6.06014
O -0.614778 -0.648245 -1.06847
O 3.68235 -1.08251 -9.58346
O -9.04347 -3.1761 6.43462
O 5.72849 4.91253 -5.35124
O -9.79636 -6.68919 5.56907
O 4.97405 -6.28439 -9.29751
O -1.45303 2.80209 5.18517
O 9.44337 3.98206 4.50942
O 5.92851 9.35849 2.99193
O 6.49911 -7.88585 9.5311
O -9.67769 0.810443 0.795218
O 0.24384 -10.2125 -6.77831
O -8.17893 -3.59085 4.01383
O 2.7302 -5.39784 -1.16594
O 4.27736 0.797628 -2.19261
O -6.2514 7.99326 5.75234
O 9.30091 -0.11018 7.8195
O -2.36026 1.19662 -1.20105
O -9.09108 -9.18954 -5.41597
O -1.16099 1.63606 -3.48089
O 6.6798 1.09016 -0.663563
O 4.95501 5.63538 -0.266742
O 7.87984 4.97008 2.71191
O 0.317274 -0.967414 2.57239
O 2.79842 -9.4428 6.89788
O -4.52807 2.45238 -4.64316
O -7.84874 -7.69879 -0.69303
O -7.81089 -5.4005 -6.38719
O -2.45435 6.27268 -2.39082
O -6.56082 -6.06327 0.851576
O -5.61721 4.84219 2.12466
O 1.13597 8.3222 -2.61048
O -10.2354 -1.25756 9.55342
O -4.14932 -2.11648 -6.90439
O -9.00441 10.2826 2.60027
O 7.56782 -2.14906 6.0432
O 1.95692 -7.76958 -2.12376
O 2.91536 4.07101 3.7381
O 9.3509 0.992969 -1.45414
O 8.44989 -10.2005 -7.52222
O 0.251046 5.94454 1.83368
O 8.40814 -1.81375 -3.79906
O -1.49657 -4.21526 -3.35246
O -8.63055 1.34548 3.94468
O 8.01832 6.96457 -8.49696
O 9.75422 -8.17546 4.08894
O -10.0649 5.25979 -2.5064
O -0.213689 2.63048 -1.15566
O 2.55929 9.04394 6.03928
O 4.25468 -1.29684 7.03138
O -4.92721 -1.34263 -4.67667
O -2.86112 -1.05146 7.47064
O 4.49989 7.88959 1.2762
O 7.59542 -7.0666 5.01839
O -10.4406 -10.4475 7.41191
O -7.7327 1.80305 -7.05678
O -0.0259579 -6.8951 7.06212
O -2.63358 9.01063 -2.75295
O 3.01592 5.74589 1.27643
O -1.9158 6.83965 -9.34351
O 1.64491 -2.88956 -9.43183
O 5.83585 10.0622 -2.13788
O 9.59056 -5.34943 -3.37031
O -9.07222 -5.62996 0.382723
O -1.28834 -7.76926 0.0833688
O 7.21106 0.305066 -6.30749
O -4.08214 -6.55675 4.74578
O 1.06619 -4.02692 -7.14757
O 1.923 -2.49797 7.27321
O 4.23471 -8.88988 -8.58603
O 3.54277 8.21017 3.61659
O -9.29663 -5.37232 7.78518
O -4.55232 -9.76046 5.29937
O -0.0679202 9.51373 2.23213
O 6.46504 5.0864 -7.91469
O -8.41421 3.79014 4.53455
O 8.90651 -0.427463 -8.10683
O 7.9587 5.15883 -4.18747
O -0.0353791 7.38624 -4.62517
O -6.42786 -7.18049 5.59898
O -8.8451 -7.7311 -7.39604
O 7.65236 2.52215 -4.52385
O 3.4964 -9.78319 -3.02744
O -1.32117 5.10319 -4.43233
O 4.36192 -8.43352 0.600825
O 8.47775 9.02038 3.72324
O -1.8417 9.28933 8.29464
O 0.879799 5.55562 -6.16911
O 1.20672 -2.40695 -0.447967
O -1.25786 7.53035 3.38972
O -2.27076 -4.74259 5.18974
O -8.86254 -5.00239 -3.56814
O 5.90447 -3.98137 -6.69272
O 7.4476 -4.65308 -2.24151
O -5.5207 1.27071 4.43229
O 5.35345 7.26016 -8.20237
O 8.6644 -9.22187 6.14425
O -1.67841 10.2885 3.87085
O 3.19728 1.73941 2.40549
O 2.82172 6.67178 -7.48776
O 1.55577 -9.11599 -4.60337
O 2.93834 -9.92547 -6.60293
O -5.88353 3.78364 -2.66666
O -4.41473 5.69796 6.70789
O -9.86829 -10.2022 -7.47712
O -5.59157 10.2058 0.166665
O 1.54375 9.38658 -5.13759
O 4.26577 2.28578 4.84234
O 8.92922 1.62947 0.945871
O -5.03886 -8.18863 0.489428
O -9.78851 5.5133 0.0534472
O -7.49097 -0.787291 1.27803
O -2.4362 -1.78106 -3.5551
O -7.2278 -5.35338 -1.59893
O 1.15317 9.0171 -0.0664959
O -1.85922 -9.68714 -1.93806
O -7.97037 -3.06516 -2.25591
O 8.13036 4.44542 6.59367
O 7.42163 -8.80635 -5.67741
O 8.4595 -4.20867 -7.30983
O 5.3331 1.51363 -4.70091
O 2.53234 2.17161 -6.40625
O -9.73912 -6.36433 2.8816
O 1.6105 -1.15801 -5.86116
O -9.18683 -8.4805 -2.84548
O -10.0136 -1.49259 1.84209
O 9.94219 8.53713 -8.05389
O -4.6746 -9.93593 2.4008
O 5.96343 -5.0077 5.14789
O 2.74404 6.29653 5.2706
O 4.43715 -5.91058 0.668749
O -2.86241 7.82461 6.45806
O 0.695124 4.4983 5.17148
O -10.0306 4.50785 6.39519
O -0.0207965 -7.20424 2.42095
O -9.5048 5.80968 -4.9247
O -9.29561 1.53046 -2.78421
O -2.78145 -2.24365 5.18934
O -7.33062 -10.0256 -1.63199
O -6.69588 -8.00306 -3.15982
O 9.00596 -8.63103 0.368544
O -5.94543 3.66317 -0.000992477
O 3.64382 9.23784 -8.06833
O -1.91641 5.34926 5.77712
O -0.516843 0.157297 -5.70229
O 5.83193 8.47404 8.03609
O 10.2496 7.73682 -3.5996
O -2.47509 -6.62171 6.93521
O -5.38316 -2.01895 0.230368
O -4.08339 7.24927 8.59146
O -1.05039 -9.12539 8.00239
O 3.77785 10.3386 1.9512
O 3.76897 10.4934 -0.649635
O -2.37122 -9.51405 -4.26873
O -3.69243 8.01641 -8.00594
O -7.2493 2.86811 2.27534
O -4.23285 3.28151 -7.0171
O -4.13557 5.49479 -8.55233
O -2.71084 8.78936 1.76195
O 3.84361 -3.68843 5.97699
O -6.49925 2.12367 8.98209
O 4.92465 3.03019 -0.925989
O 1.85833 -0.470981 -2.09222
O -7.09136 -9.6552 -7.13883
O 10.1399 -7.76914 7.80673
O -6.50154 4.12519 -7.69916
O -7.38792 0.755901 6.20872
O -4.85207 9.93536 -6.64297
O 6.62745 -2.33332 -2.02226
O -3.42446 -3.81433 0.139523
O 5.44367 5.8162 2.311
O -8.48209 0.335551 -5.05776
O -1.46346 0.244184 1.16072
O 5.95109 -2.65487 10.2565
O 4.14801 1.31269 7.29067
O -8.41887 -7.76398 7.35034
O -8.89961 10.228 5.19329
O -10.3797 3.19128 -0.301118
O 4.7947 7.78225 5.79288
O -4.78044 9.12955 3.9786
O 10.1167 8.70895 5.7408
O 5.09037 -4.27766 -1.17256
O -5.06732 -0.169963 6.58188
O 4.20747 -7.812 5.37387
O -6.79222 3.44565 -5.26254
O 3.63221 1.62044 -8.59944
O -0.924101 7.9248 -1.1533
O -1.61534 0.187134 5.49445
O -0.104578 -1.78461 -7.74048
O -3.99161 -7.57757 -3.7494
O -9.22283 -1.33926 -0.599134
O 2.58798 -0.904986 1.0703
O 2.24433 -6.19066 -6.15198
O 9.09568 -2.67857 8.05136
O -7.63571 -0.514475 9.28994
O 7.61941 -6.79229 -3.74229
O 3.42653 4.80357 -2.14056
O 5.3643 3.42646 2.89257
O -0.593979 9.00443 -8.45734
O 3.33462 6.50267 -4.11007
O -4.42443 -2.6427 -2.21055
O -2.30409 3.69267 -2.5114
O 9.17509 6.53603 4.45747
O 9.84527 0.377555 -3.87591
O 4.37327 0.772514 0.417979
O 9.89819 -1.15743 -5.85392
O 0.749891 -6.36619 0.166695
O -6.085 -5.14237 3.85901
O 8.15698 9.40527 -3.45416
O 4.20857 -3.39519 8.45439
O 4.3835 8.01393 -5.89211
O 5.69298 -0.305925 9.05352
O -0.592687 -2.03258 6.51257
O 8.49613 -6.67001 -1.22539
O -2.71927 -4.48985 -7.12388
O -5.79604 -6.48154 -5.15132
O -8.77839 -8.55894 3.96238
O -0.617685 -10.211 0.156612
O -5.14185 -0.066676 9.01295
O -7.00989 -4.22795 7.30002
O 8.23909 -4.70467 6.27176
O 7.35374 -3.40933 0.125423
O -4.41504 -8.6978 -7.70193
O -10.1338 -5.24567 -7.64649
O -2.39418 -6.78246 -8.40194
O 5.65903 -10.2445 -7.12397
O 8.59782 0.281101 5.33709
O 9.71627 4.07861 -5.5259
O 5.85968 6.9928 -3.92567
O 7.50929 -9.60486 3.9173
O -8.30742 7.05543 -2.87793
O -6.44087 6.97308 3.46531
O 2.19533 1.93931 -1.08468
O -8.16317 4.03574 -1.32981
O -6.80602 1.63896 -3.59565
O -3.93797 5.3099 -4.08542
O 1.20789 3.98468 0.517121
O -10.3957 5.66809 2.61485
O -5.16407 5.73823 -6.26266
O -3.16331 1.1277 3.80674
O 1.75991 -9.78961 0.940014
O -6.72666 -10.2327 3.8994
O -4.36445 9.70068 7.59904
O -7.58614 3.82469 7.07017
O 7.87778 10.4042 1.56561
O 8.18393 -0.794654 0.418361
O -2.2233 9.47457 -6.60871
O -2.42188 6.31669 1.51157
O 4.1418 -3.70483 -9.78217
O -8.56048 8.46377 7.04593
O 1.10095 -2.29845 4.82234
O -0.510273 1.32466 3.32379
O 1.06889 5.30617 -3.58589
O -5.54259 4.58959 8.68285
O 6.72949 -3.68063 8.01308
O 2.50251 -7.73429 3.40842
O 4.05958 8.84209 -3.11233
O 5.84635 4.70674 -2.69019
O 5.87825 -2.86597 -4.44384
O 4.90859 -3.02811 3.76058
O 4.29181 -0.529632 2.79725
O -5.38271 -4.26017 -6.53424
O 5.92415 -10.4051 9.55065
O 6.59712 -8.17992 -8.07039
O 9.3462 -6.17693 1.19925
O -0.86383 -4.17296 -8.74931
O 6.1773 -1.92238 1.68864
O 3.46299 -7.49427 -4.33621
O -6.60315 -4.29899 -4.13286
O -7.89231 -0.610778 -2.74738
O -5.42312 2.40878 6.84024
O 4.25024 3.84917 -7.29026
O 7.10015 -2.07759 -7.67753
O 3.60966 9.65931 8.52201
O -5.74027 -7.43227 2.92198
O 0.433372 -9.20726 4.04668
O 6.30039 0.0668676 6.53069
O 0.420307 2.5495 -5.13931
O 1.96099 4.15078 -8.05319
O 2.76404 3.86823 -4.52661
O -6.45395 6.75904 7.95988
O -8.41927 -1.16998 4.85178
O 4.44063 -7.52287 7.97751
O 10.2856 6.08484 -7.21367
O 3.82499 -0.583982 -7.15036
O -10.0795 -1.72296 -3.20773
O -8.89446 4.16165 -6.69276
O 10.2515 9.98761 0.633473
O 10.4825 -2.55369 4.15102
O -4.26629 0.608729 -6.41242
O -4.78411 2.22263 2.08141
O 2.30946 1.57502 -3.6562
O 6.22535 6.05559 6.98098
O 4.53411 -7.02085 -6.82279
O -1.90609 -9.39621 -7.88765
O -1.52534 -8.5438 5.58578
O 7.48595 8.04171 5.95036
O -1.25328 4.7946 3.50173
O 9.62208 2.95455 -3.17994
O 3.3997 -3.45204 0.52373
O 0.962675 10.0472 8.07764
O 1.21635 6.54321 -0.481745
O -5.15361 -0.33971 2.34103
O 0.289798 -5.91247 -2.23603
O -0.54424 9.82368 -3.69086
O 5.97422 0.047153 -8.53642
