594
Atoms. Timestep: 1790001
Si -2.01109 -1.94277 -8.57104
O -2.02981 -1.60237 -10.2485
H -2.2448 -2.38015 -10.7498
Si -1.20949 -4.96004 -8.94629
O -1.57278 -5.09473 -10.6058
H -1.03647 -4.53778 -11.1578
Si 3.03221 3.43281 -8.99181
O 3.23638 2.50583 -10.3609
H 2.81813 1.65285 -10.3603
Si 9.69407 2.77375 -9.15213
O 9.22052 2.62293 -10.8256
H 9.87635 2.92378 -11.4435
Si -4.70005 -2.91152 9.69316
O -4.88684 -3.21595 11.3932
H -4.32803 -2.69442 11.9573
Si -3.37798 -0.0323616 9.69557
O -2.17576 -0.0437732 10.9078
H -1.42512 0.473634 10.6407
Si -10.3469 5.6696 -8.24642
O -9.87319 6.67751 -9.52356
H -9.55366 6.24365 -10.306
Si 3.91605 6.46478 -9.29783
O 4.64734 6.72428 -10.78
H 5.55764 6.98122 -10.6915
Si 7.82831 -7.99707 9.50399
O 8.37769 -7.94268 11.1466
H 8.42147 -8.75027 11.645
Si -5.66988 1.74534 9.23735
O -7.08457 1.53826 10.1883
H -6.99749 1.02547 10.9832
Si 5.0959 -9.69717 9.64514
O 5.13976 -10.3714 11.242
H 4.32087 -10.359 11.7234
Si -7.06216 0.846435 6.65114
O -8.42822 1.54715 7.44753
H -8.4164 1.65974 8.39075
Si -3.02187 -7.4164 7.09801
Si 9.87808 -5.7623 -7.43497
Si 7.38689 -2.08718 2.47849
Si -8.95819 -5.21584 -3.3568
Si 8.93399 7.55571 -6.78188
Si -1.20963 0.245683 2.9982
Si 4.45312 -5.18236 7.91652
Si -0.707822 5.15806 3.5772
Si -3.85049 9.30863 -7.76805
Si 9.17498 -7.03261 0.481747
Si 5.13193 2.68627 -3.1
Si 2.306 4.62348 3.2876
Si -0.087968 -6.36151 2.04077
Si 9.58636 -5.82004 5.83057
Si -7.99791 -10.4023 1.46993
Si -8.687 -6.90045 -8.56695
Si 3.23976 -7.88638 8.1635
Si 0.0238795 3.30619 -0.893675
Si 8.88325 6.6375 2.80106
Si -0.364975 10.0337 2.82344
Si -9.05292 -8.8375 3.95929
Si -8.8844 5.65899 0.45335
Si 6.43109 3.01911 3.93263
Si 9.31507 -5.39491 -1.99778
Si 10.3489 9.53839 -1.37503
Si 10.1342 1.26857 -5.37093
Si -8.04591 -4.42685 1.89663
Si -6.29232 9.49099 7.14452
Si -7.62116 9.53401 -2.38811
Si 8.69396 -2.39985 7.85136
Si -3.71495 -8.6479 -0.700082
Si 3.32425 1.99083 6.75567
Si -5.99966 9.23463 -9.93282
Si 5.7434 7.13947 -6.76894
Si 4.32951 9.09457 7.45794
Si 3.08395 3.13153 -0.713325
Si 6.67342 -7.76255 3.42135
Si 8.85662 0.512837 7.63105
Si -1.58555 -10.1702 7.33178
Si 2.97877 4.94832 6.43055
Si 9.96748 3.28698 6.75512
Si -3.06718 -9.50292 2.75385
Si 1.5068 -6.38051 -7.94288
Si -7.85841 -8.78218 -1.23823
Si 4.15223 -5.84523 0.610818
Si -3.48795 -1.86536 2.94454
Si -5.95908 -5.71671 3.8613
Si -10.466 6.63021 -4.20133
Si 7.95194 5.33322 5.47211
Si -5.59745 4.51987 7.80451
Si 3.90632 -8.6329 -5.6734
Si 6.18479 0.919914 6.20305
Si 2.5978 -2.93583 7.38109
Si -0.104728 -3.98734 6.48354
Si -6.93493 -4.49082 -7.87808
Si 1.57132 7.63895 7.24153
Si 9.08367 -2.45893 -2.30232
Si -0.868096 -6.77073 4.96924
Si -0.514035 -8.5546 -0.264158
Si -1.97953 4.63781 -6.18615
Si -1.62686 4.73575 -3.03887
Si -2.08446 -4.06001 -1.81671
Si -8.79302 1.88115 -7.6993
Si -6.65818 6.72135 -1.62649
Si -5.05751 -4.37355 -2.66747
Si -4.53541 7.11128 4.8003
Si 0.0584907 -6.257 -2.30963
Si -8.10535 8.39517 -5.2158
Si -8.10043 -9.09188 6.98865
Si -9.57768 -3.35451 6.45113
Si 7.3168 9.37566 2.7744
Si -3.82551 9.98981 5.20007
Si 8.96487 -9.71132 4.50733
Si -0.623964 9.7055 -7.26134
Si 2.51541 -4.3347 -1.70298
Si 2.19 6.09222 -3.40744
Si 8.25667 -10.0304 0.133428
Si 1.89781 3.07354 -4.63108
Si -4.01562 -6.78773 1.62818
Si -9.82427 -1.41989 -4.26611
Si 7.63719 2.58896 -6.66169
Si 2.72459 -10.1812 -3.47689
Si 4.46324 5.39486 1.2264
Si -9.17731 -3.69008 -5.97219
Si -2.72664 -6.6321 -6.80421
Si 4.52294 -4.7017 -4.04587
Si 0.06095 -7.1364 -5.31157
Si -7.52585 -8.54064 -6.27517
Si 0.469553 9.42003 -0.000281413
Si 7.66095 -5.11574 8.18563
Si 2.70828 -1.31982 -2.69213
Si 4.62338 8.9303 4.40952
Si -4.56235 2.56071 0.145832
Si 7.15691 -4.88837 -6.54373
Si 1.44468 -0.230009 7.6283
Si -4.93738 -2.3232 -7.39766
Si 9.48783 0.344148 -0.873315
Si -1.60161 2.67433 5.01294
Si 4.34922 -7.04611 5.54923
Si -4.39971 -8.95133 -6.30547
Si -1.41296 8.06087 8.1036
Si -4.34191 4.14565 4.86465
Si 0.295107 3.22198 -7.48015
Si 1.01011 -8.91885 6.28626
Si 3.78949 -3.01465 4.64306
Si -6.20821 5.1909 -4.347
Si -7.18806 -5.70751 -0.90013
Si 3.34834 8.28237 -5.36263
Si 4.49594 -0.78718 2.37827
Si 4.29213 7.03875 -1.31764
Si -7.58757 7.44006 5.04011
Si -10.1151 9.82907 -7.29103
Si -2.25422 -4.18026 1.27992
Si -0.236019 0.265517 0.0479503
Si 9.86693 -8.69768 7.24672
Si 2.71772 -5.62384 3.36347
Si -9.23371 7.96638 2.41941
Si -4.98515 -4.80523 -5.64857
Si 3.60735 2.0135 3.69688
Si -3.64157 1.9585 -5.88164
Si -6.23258 0.49718 -6.67438
Si -3.93378 7.16582 -0.450232
Si -0.442594 7.5114 -2.43633
Si 7.79283 2.93595 -1.41255
Si -6.24419 7.43143 -7.49667
Si 4.79297 -0.15066 -4.68358
Si -7.95452 -1.32112 1.99829
Si -8.06529 -9.87599 -8.95898
Si 6.90653 -6.48317 -3.74524
Si -0.606117 7.9259 5.08062
Si 10.2515 0.790993 4.95063
Si 7.80991 9.726 -2.65428
Si 1.94788 8.67807 -8.24382
Si -5.24912 -0.406727 0.8199
Si -1.00851 0.479474 -6.84696
Si -3.1601 -9.50496 -3.44263
Si -2.66339 -4.532 7.89487
Si 3.56155 9.99174 -0.668269
Si 1.76674 -9.47611 -7.93069
Si 10.4066 3.63464 -3.25577
Si -7.58459 2.86347 1.12665
Si 6.56164 4.81845 -5.0245
Si -7.18265 0.187454 -3.71659
Si -4.28689 2.99652 -2.99914
Si -10.2603 -6.23904 3.04931
Si 4.46364 -8.86065 1.49472
Si 7.05664 -5.20442 1.56966
Si -0.199045 -10.1548 -4.48357
Si -4.41164 -3.55849 5.43044
Si 6.59091 -2.11245 5.45638
Si -4.45014 7.25032 8.01315
Si 9.98994 -0.297298 2.0976
Si -1.44705 0.509334 7.30515
Si -3.89317 6.93114 -5.83062
Si -2.25793 4.72165 0.858921
Si -0.252038 -1.26358 5.31288
Si -6.65628 -3.79718 7.53722
Si 9.61487 -8.60619 -6.01645
Si -8.2173 -1.02064 4.97109
Si 7.10486 6.62707 -2.45515
Si 0.335415 0.40813 -3.98734
Si 2.87291 0.0995822 -0.130167
Si 6.81885 -9.37054 -4.94455
Si 6.71554 -2.47285 -4.59678
Si 4.4398 2.07446 -6.38777
Si 5.42034 6.59206 6.18152
Si -4.83279 -1.21315 -2.22264
Si 4.15789 -5.6741 -6.88696
Si -4.91624 9.89391 0.733484
Si -6.13467 -6.77581 6.70988
Si -9.32393 -8.18342 -3.85358
Si 7.39579 4.22009 1.41759
Si 9.6543 6.68575 -1.13982
Si -8.8734 1.80372 -1.59841
Si 2.50958 -10.0557 3.72502
Si -7.75485 4.81613 -6.97812
Si -3.07168 8.52922 -3.18781
Si -6.94072 2.74626 4.11092
Si -8.33213 4.68705 6.22954
Si -1.66046 -1.10448 -2.2881
O -4.62033 -9.99822 -0.382009
O 0.911661 -0.573682 6.12322
O 8.84524 4.37485 6.47696
O 7.07473 -3.34979 -5.92354
O 0.00022496 -10.0651 -0.397279
O -7.43924 2.29924 2.66327
O 8.88686 -1.52724 2.06514
O 8.93687 -8.69552 8.52941
O -0.169439 9.18113 1.45083
O 2.01159 4.58834 -3.96159
O 3.29485 -4.99844 -0.446158
O 10.2692 7.39635 2.60419
O 5.814 9.45962 3.42347
O -7.95841 3.79692 4.86349
O -1.21129 -5.40943 -1.87764
O 7.28588 7.58245 -6.8461
O -1.52096 1.87129 6.40057
O -5.84114 -3.41078 -8.36548
O -7.63441 9.29395 -3.97238
O -2.16702 -5.80415 -8.01802
O 1.6809 -7.92163 -8.4056
O -8.70605 -6.72129 -3.86369
O 7.92297 -8.60289 3.98273
O 6.00599 5.05809 1.55573
O 3.07724 -2.40504 5.9266
O 4.82311 7.39279 4.85343
O 2.18758 6.14916 7.13015
O 4.64107 9.63963 5.95115
O -1.22352 -0.848454 -7.79288
O 6.39384 -8.81113 9.41009
O -2.8754 6.08996 0.253521
O 10.3062 -0.128632 -4.62315
O -1.72642 5.00687 2.37744
O -2.28387 -7.15673 5.68481
O -5.39477 8.56571 8.19665
O -3.10225 4.15415 -2.83539
O -8.27212 -9.57852 2.82589
O -3.09495 3.19052 4.87269
O -2.84851 7.41695 8.59796
O 5.7256 5.64305 -6.13103
O -3.70648 -5.64321 -5.99174
O 2.56134 3.05156 2.97219
O 2.28992 10.1971 -8.74198
O 8.48224 2.66821 -8.07187
O 10.4459 2.44753 -4.27743
O 3.42547 5.34999 2.45903
O -0.404992 -5.29754 5.58913
O 2.94142 1.76847 5.16754
O 3.71121 -5.45296 2.11855
O 5.65067 -7.4818 4.67762
O -8.1941 -3.62535 7.30426
O -5.99308 3.07028 0.684937
O -7.82076 1.26551 -2.69213
O 0.230262 -10.025 -7.7775
O -1.50304 7.88643 6.46203
O 8.64858 1.57606 -5.86324
O -5.15533 9.91954 6.06304
O -4.06661 -1.43146 9.68752
O 10.0456 -7.04165 1.82997
O -9.58456 -9.11418 7.56598
O 7.85001 -2.55403 -3.42598
O 3.76207 -1.1339 -3.9462
O -3.67751 -8.516 -2.28056
O 10.4558 -2.20872 -3.11814
O 5.03562 6.86763 -8.16248
O -0.512593 1.81999 -7.62628
O -9.49086 -4.98611 2.40904
O 0.399835 8.61052 -7.97394
O -0.303429 -2.78801 5.49203
O 0.0406232 -7.68982 -1.54478
O -6.83359 -0.504248 1.17467
O -7.88099 6.07795 -0.839359
O 10.4162 -9.82428 -6.69773
O 3.19178 -8.90505 -4.29461
O -8.16938 3.37433 -7.5131
O -1.46885 -6.98674 -5.88544
O -0.577114 3.80093 -2.29963
O -3.64789 -9.00497 -4.88203
O 10.2093 -2.67412 7.20174
O -7.5408 -1.21914 3.59064
O 9.6204 -7.23799 -6.78248
O -7.52742 -9.57641 -7.47749
O -8.26975 -8.96336 -4.92746
O -2.45223 0.944989 -6.27506
O -6.00085 1.00891 7.81065
O 9.6957 8.83667 -7.38862
O -7.21639 4.68754 -5.44215
O -5.70551 -0.956451 -7.00544
O -4.61693 -7.38927 6.88681
O 4.08896 -7.45485 0.716155
O 8.48786 5.27318 1.94887
O -9.75159 1.46385 -6.49167
O -1.16699 -0.651028 -0.822263
O -5.94834 8.5337 -11.3074
O 8.09123 -9.20364 -5.95727
O 0.255051 -8.71213 -5.09669
O 9.66221 0.475625 0.736555
O -6.4102 10.2189 1.29168
O 1.38554 -3.90353 7.14421
O 6.05661 -0.541183 5.67398
O -2.65872 -6.09957 7.99942
O -8.63383 -4.19443 -4.55109
O -4.99174 5.93411 -5.21762
O 10.333 4.23836 -8.95167
O 5.32444 -9.30277 -5.5135
O -9.00144 9.14636 -6.31722
O -4.38077 2.44697 -1.44746
O 2.60574 8.60593 -6.73448
O 3.85216 -4.84856 -5.52467
O -8.43114 4.26007 1.10665
O 7.43003 8.20164 -2.63702
O -9.13082 9.43122 -1.79178
O 4.37668 -10.0946 0.434251
O 9.4242 9.76088 -2.67026
O -10.3148 -4.80846 -6.3982
O 9.22563 -9.57705 6.11012
O 5.39649 -3.07986 5.16807
O 3.74783 -3.76801 8.08186
O 4.39614 -5.66863 6.37113
O -1.14397 -3.97891 7.69027
O -0.821582 3.99107 4.68587
O -9.1629 -8.69561 -2.31017
O 2.74182 8.74344 7.53007
O 0.254968 -6.41643 -3.87512
O -8.856 9.27044 1.60537
O -0.10492 -9.92967 6.70837
O -5.12511 -0.831795 -0.702439
O -0.0150633 0.345916 8.09492
O -8.02318 -2.84991 1.56669
O -2.14621 -8.65446 7.68152
O 4.84423 10.0824 8.60152
O 3.03975 6.27186 -2.03329
O -1.50579 -0.663854 6.20606
O -3.3285 -5.42036 1.44583
O 0.998592 3.23708 -6.00364
O 5.48654 -3.44055 -3.99063
O 8.46461 1.48828 -1.22108
O 7.06613 5.84933 -3.85439
O -1.37326 -3.40875 -8.56424
O 2.10963 -9.45785 5.22904
O 3.78643 2.6683 -7.73282
O -7.19592 -10.3002 7.5626
O -3.96954 -2.45618 4.34865
O 6.76322 1.77556 4.88006
O 1.49947 3.38859 -8.52051
O 5.04447 7.63304 7.37257
O -1.38893 -2.69985 -2.42837
O 5.57977 6.53085 -2.02713
O 1.57983 3.63297 -0.929082
O -4.72983 -4.89511 4.48313
O 8.73024 6.13989 4.31003
O -5.34994 -6.59839 2.6208
O -1.5246 -9.9252 2.91911
O 7.34906 0.923214 7.28186
O -0.117546 1.69579 -0.638728
O 10.2279 6.91847 -2.65291
O 2.96509 1.70613 -0.0204295
O -4.58281 7.90616 -7.07351
O 2.89551 -4.24026 4.16035
O -1.54359 9.65451 8.36705
O 0.0655485 8.33122 -1.09548
O 6.15047 -1.00376 -4.882
O 8.93637 3.57833 -2.47202
O 3.2269 -6.79335 4.41458
O -0.901081 4.18816 0.111104
O 4.19291 0.627299 3.14335
O 6.09912 2.21612 -6.51163
O -6.57811 6.1765 -3.15543
O 2.94446 -5.69964 -7.97677
O 4.08895 -7.96925 6.81022
O -9.72515 4.21788 6.88903
O 4.03661 4.15185 0.175732
O 6.11482 -1.12107 2.22067
O -10.2608 -4.81593 6.10499
O -3.8561 -9.89803 4.12161
O -8.49222 8.07393 3.8778
O 8.94645 -1.09047 -1.41723
O -7.10203 4.60146 7.25824
O -0.840545 -5.03212 1.52312
O -5.76445 -3.29761 6.26186
O -1.51571 -9.69924 -3.59083
O 7.49608 -2.34692 6.76125
O -5.8036 -5.11664 -1.51267
O -2.54455 -0.589973 3.14089
O 7.7535 3.67221 -0.0218877
O 0.254724 7.68237 8.2525
O -8.10785 -3.79067 -7.1453
O 8.32239 9.92224 3.8752
O -9.34176 10.2305 -8.65418
O -8.40741 -9.13462 5.39915
O 10.478 -9.46091 4.01581
O 3.30162 9.54829 -4.27725
O -10.4067 4.99004 -4.12416
O 3.49076 -6.32141 8.58738
O -7.34032 -0.685855 6.26412
O 0.0469759 0.176695 -5.62378
O -8.28449 -7.32621 -6.99703
O -1.27646 1.62327 3.87775
O -8.22077 6.16604 5.64346
O -3.74244 10.4775 1.76003
O -4.54877 1.0468 0.848915
O -6.93652 -10.4818 -9.78669
O -2.59629 -3.06516 2.32986
O -3.05074 3.43334 -6.11317
O -4.7396 -3.19504 -6.06191
O 1.78157 -8.34092 7.61602
O 7.77524 10.1548 1.39379
O 9.76113 -10.3568 -0.361597
O 7.12392 10.3551 -3.98544
O 4.31964 0.537972 -6.03609
O -6.09777 -5.1848 -6.67839
O 5.36564 -6.00474 -3.62819
O 5.77681 -8.5924 2.33999
O -9.20391 -7.29425 3.66952
O 6.99132 -8.08869 -3.9607
O 5.06752 1.19685 -3.73461
O 4.86753 8.04987 -5.87139
O -9.01263 7.26414 -4.48998
O -9.51768 3.19402 -2.09451
O -8.69775 6.72632 1.55439
O -7.01731 -4.71304 3.13315
O -6.5989 8.26682 -8.76589
O -7.44555 0.94257 -7.70413
O -5.44421 -4.86002 -4.11829
O 3.24374 9.52389 3.91797
O -3.75046 8.4798 4.50324
O -5.37575 3.24945 8.79145
O 2.94119 3.47791 7.013
O -6.79113 8.32209 -1.75267
O -0.815249 4.38384 -7.3172
O 7.44905 -2.1253 4.15887
O 8.27752 -5.67599 0.738397
O -9.26666 0.167156 4.97212
O -10.0219 1.87073 -8.80805
O -6.03972 -3.08034 8.86217
O 7.74779 -6.51203 8.99332
O -3.52312 -2.10087 -8.0716
O 1.23073 -5.25224 -1.77343
O -7.3146 -7.28764 -1.21727
O -3.57058 -3.86548 9.0783
O -5.61349 3.55974 4.06999
O -1.02734 -0.0145737 -3.35365
O -3.4175 -3.9972 6.55994
O 1.96048 -1.62786 8.11278
O -8.19751 -9.34094 0.252837
O -3.85522 2.01941 -4.22238
O -7.28719 -7.74777 7.21967
O -10.3564 5.75952 -0.270616
O -7.64247 -5.28004 0.578958
O -6.08332 7.27245 4.46149
O -8.32983 -0.921669 -3.89376
O -0.840635 0.395187 1.48658
O -0.219709 -0.652929 3.84643
O -4.55152 9.43924 -9.15488
O 3.80855 2.93593 -2.21238
O 8.23177 -5.26885 6.64822
O 2.62053 7.52133 -9.07428
O 9.46542 0.0708441 6.22273
O -7.55145 -5.72264 -8.76926
O -1.39162 4.76251 -4.65775
O 1.03378 -6.41583 -6.39477
O 1.14588 -10.4446 -3.68326
O -4.46872 1.08354 10.0082
O 9.83017 -6.49772 -0.922953
O 2.35657 -2.72954 -1.86704
O -9.45513 -0.79493 2.03609
O -0.647372 9.05111 4.0375
O -6.26523 -5.35664 7.48554
O 9.39354 6.22479 -7.49224
O 2.88007 7.04971 -4.55231
O -6.60993 5.86532 -7.6215
O 2.4626 4.82797 4.88626
O -8.4915 -8.28584 -9.34061
O -2.34884 -3.69569 -0.264731
O -3.47248 7.85024 -1.79923
O -6.89009 0.673382 -5.23503
O 7.04189 4.30715 4.61747
O -9.05796 -2.35939 5.30092
O 5.69208 -5.279 -7.14939
O -8.27321 2.05942 -0.126828
O -3.97774 5.64826 4.40879
O 10.1798 2.35754 5.39366
O 6.97481 -6.38283 2.73557
O -4.42228 7.0739 6.41907
O -3.47151 -4.42304 -2.53694
O 8.31283 -8.40369 0.337084
O 9.10694 -3.83492 -1.58396
O -1.45808 8.55789 -3.18675
O 9.73028 0.506981 3.43383
O 1.40209 -0.628129 -3.33302
O 3.19246 -10.1709 -1.9499
O -2.11856 -8.67913 -0.282995
O 10.4472 -5.30053 -3.14291
O 5.59668 3.83926 -4.16732
O 8.74648 -0.91287 8.49259
O 3.70846 -0.66553 0.973852
O 0.884401 7.98601 5.79855
O 7.89299 -5.95161 -2.63509
O 3.38607 -4.59987 -3.00268
O -0.531457 9.90261 -5.65978
O 3.34197 -9.17139 2.64368
O -5.17338 5.94002 8.44893
O 4.5378 5.27848 6.33416
O 9.89936 -7.26531 6.49207
O 1.10616 1.82782 -3.79857
O 8.43413 -5.09912 -7.54853
O -2.21808 9.43345 -7.60386
O -3.39836 3.55497 0.729122
O 4.3178 6.65777 0.257915
O 7.0881 -3.59895 2.00261
O 9.54024 7.31513 -5.24019
O -4.63505 -1.35546 1.92558
O -7.32107 8.48965 6.2691
O 2.54478 0.958789 7.66198
O 7.70434 3.98276 -5.79231
O 4.87753 1.6016 6.74874
O -5.57777 3.85221 -3.5442
O 2.13428 9.55416 -0.0656252
O 1.0776 -10.2989 3.03627
O -6.82157 1.59146 5.22349
O -9.1167 5.65923 -7.19273
O 9.73515 8.1786 -0.663302
O 3.84809 -8.77725 9.32482
O -2.6416 10.2809 6.20995
O 1.35773 -5.96626 2.66303
O -9.85655 -2.31379 -5.60692
O 6.97019 6.37981 6.084
O -2.57227 0.424558 8.39513
O -5.89907 -8.35657 -6.07555
O -3.53786 -7.96212 -7.23567
O 3.93995 -1.93033 3.39606
O 7.68536 7.80393 2.50883
O -3.44676 7.75268 -4.54565
O 4.22504 8.63459 -1.19767
O -4.45539 -10.4665 -6.86631
O 7.48078 -10.4847 -1.25732
O 6.41124 2.76672 -2.12317
O -10.0789 -6.17637 -8.53253
O -6.94453 7.85884 -6.15851
O 8.32755 -3.73581 8.74742
O -1.42164 6.20654 -2.41861
O 4.14359 -7.19537 -6.29873
O -5.27281 6.36134 -0.879051
O 6.02716 -4.97589 8.14847
O 5.70497 -5.41329 0.659968
O 0.858978 6.94584 -3.13803
O -4.47941 8.38866 0.413848
O -5.75844 -0.308979 -3.11833
O -6.40793 -6.55126 5.10701
O -0.768495 6.54173 4.33832
O -3.25535 -8.00606 2.32051
O 0.34203 -5.54765 -8.68347
O -10.1086 0.650712 -1.52195
O 1.30408 -0.300449 0.0519622
O 0.794945 5.01076 2.89004
O 3.21304 -0.297851 -1.63178
O -4.27892 -7.3966 0.184163
O 0.172967 -7.80428 5.46941
O 8.14447 6.11796 -1.38496
O 10.2931 -8.33614 -4.58567
O -5.2783 -2.74566 -2.51564
O 7.0563 2.968 2.45065
O 2.7921 -9.39613 -6.67071
O -5.03832 1.55278 -6.57677
O -3.22164 -1.086 -2.52162
O 7.32572 -5.66361 -5.12775
O 3.39728 2.67629 -5.24551
O 9.57497 1.97887 7.78414
O -4.80857 4.25045 6.40652
O -2.80832 5.99701 -6.44857
O -8.19162 -4.95622 -2.00029
O 9.7123 -5.99326 4.24026
O 4.84406 2.96038 3.90426
O 3.54947 4.93077 -9.09408
O -3.65402 10.0053 -3.21106
O -0.137914 -7.6068 1.03435
O -7.09243 -9.98599 -1.94837
O -0.881666 -6.65168 3.3892
