588
Atoms. Timestep: 1790001
Si 2.47349 -9.15924 -8.39581
O 3.3332 -10.4298 -9.1101
H 3.75995 -10.2311 -9.93526
Si -0.500246 -9.3029 -9.60497
O -0.631047 -9.64124 -11.2594
H -1.31511 -10.2634 -11.4772
Si -8.85713 0.891911 -10.2903
O -8.93084 0.703597 -11.952
H -8.08051 0.792536 -12.3662
Si -5.3195 -2.47665 9.80248
O -5.42091 -2.59398 11.5049
H -5.35862 -3.4809 11.8396
Si -3.9314 -5.28787 9.63384
O -3.77047 -5.58986 11.3122
H -3.48268 -4.87657 11.8697
Si 6.05658 1.67258 9.26294
O 5.80088 1.41961 10.9808
H 6.54747 1.28124 11.5517
Si -10.0425 3.62851 -9.11477
O 10.4556 4.63351 -10.4248
H 10.4789 4.19634 -11.2679
Si 9.22574 1.33924 9.35589
O 9.86908 1.853 10.8163
H -10.5105 2.55867 10.8299
Si -1.44448 1.16614 -4.71158
Si 9.47524 -5.45896 -7.96065
Si -6.38225 0.828998 -8.42817
Si 6.67011 -6.12329 -0.451714
Si -6.89886 -10.228 -2.3473
Si 4.56489 -10.0164 -0.512653
Si -2.15919 -9.2917 6.12971
Si -7.71717 -7.38664 -1.83702
Si 9.1927 5.45004 0.361076
Si -8.54014 -1.27137 1.11773
Si 6.13341 0.328881 4.66989
Si -9.17599 -5.06983 -3.11762
Si -9.24964 1.32988 -0.482974
Si -1.79633 8.83502 7.47152
Si -0.878422 -4.6392 -0.697771
Si -2.98846 -8.59742 3.12585
Si 1.51204 7.81886 -6.88303
Si 1.83935 4.85428 -1.77885
Si -0.0322163 0.746441 0.598627
Si 10.3285 -6.32107 7.97384
Si 0.573826 -1.55612 -7.47714
Si 8.00884 -0.130108 -6.84402
Si -2.90445 -1.30597 8.23949
Si -4.47719 1.60768 -4.91898
Si 6.75574 5.27843 -6.80891
Si 10.5 -7.06969 3.26218
Si 2.78705 0.286608 -2.95677
Si -9.76718 -4.75939 5.28842
Si 3.46958 2.88574 -5.83807
Si -5.50122 -1.68482 0.843323
Si 9.46973 -4.16451 -4.98916
Si 1.60935 7.22155 5.31819
Si -5.74095 -6.87535 2.99535
Si 9.28174 -1.22999 -4.1116
Si -3.76932 -3.37042 5.89808
Si -5.39885 -6.88094 -8.00849
Si 4.13569 3.04345 -1.80112
Si -0.468505 6.06071 -5.36865
Si -5.73597 8.52497 2.68097
Si 8.07845 -8.06686 1.69283
Si -7.80569 5.04519 -7.3602
Si 7.24437 -1.59679 -1.64435
Si 1.53671 2.31008 4.85484
Si 3.29447 -6.97053 -4.59955
Si -2.53887 5.36907 0.739029
Si -6.64809 -6.97561 5.94941
Si 1.29674 8.95207 7.74696
Si -1.29 3.40869 5.21108
Si 4.58164 3.13544 5.02056
Si 6.64686 -6.11374 -7.66951
Si -6.29342 -4.06381 -8.12572
Si 3.906 -7.11875 -0.0898447
Si -7.00588 6.75706 7.15431
Si 9.69179 9.08491 3.38962
Si -10.1997 -0.66246 -8.0462
Si -8.88369 -8.57428 7.54329
Si 0.525269 -8.19057 -3.7543
Si 3.24548 -2.81603 0.836457
Si -6.35106 10.2251 -5.29445
Si -2.10861 2.62994 2.15833
Si -4.8455 4.97099 -7.21813
Si -9.67164 6.67136 -1.28744
Si 6.24603 1.16543 -0.437155
Si 3.38002 7.04089 -3.6717
Si -9.57907 -4.11667 -0.115652
Si -8.36179 8.03961 -6.43151
Si 9.47172 10.3182 0.561617
Si 9.93196 -1.59289 8.41124
Si 0.284253 -0.578608 5.45274
Si 8.78175 3.05479 -4.23258
Si 0.114473 -2.37307 1.39275
Si 2.44494 1.96006 1.84355
Si 3.01431 -3.46895 -7.59633
Si -6.9395 -3.93502 5.98844
Si -4.23415 -4.5451 1.8543
Si -2.56759 -9.74972 0.457819
Si 3.94745 -7.13079 3.01233
Si -2.36789 7.62719 -3.74925
Si 2.63696 -3.83797 -4.39162
Si 3.45411 6.74834 7.69206
Si 6.36029 -4.20584 -5.09361
Si 8.3945 -3.62258 0.441137
Si 0.134785 -7.22619 6.6305
Si 8.39276 -4.25256 8.68669
Si -2.62243 -7.87179 -7.98314
Si -7.81125 -5.00407 -5.69729
Si 7.50228 -3.53586 3.41014
Si -4.77455 8.48324 7.98866
Si -10.1291 2.89087 7.14839
Si -5.19255 1.72582 4.92093
Si 8.94193 2.25637 0.552046
Si -4.98538 1.31797 1.77416
Si 9.4168 -2.08963 5.25225
Si 10.3651 -8.35715 -7.15134
Si -0.298392 -0.193059 -2.20488
Si -9.81149 1.1602 -3.52293
Si -1.87069 -3.48375 3.4676
Si -4.41522 -7.9059 7.90254
Si -2.8395 7.22069 -6.76567
Si 2.4372 7.08685 2.3492
Si 5.19127 -0.842223 7.55442
Si 2.51044 9.888 -2.78506
Si 3.81853 5.93407 -6.66442
Si -1.41697 6.42646 5.31933
Si 0.775372 3.35076 -4.27256
Si 8.76359 1.66131 3.60046
Si 5.54171 -3.84733 8.07189
Si 6.05755 -6.72445 -3.4053
Si -0.217699 -7.5041 2.13541
Si -3.23817 -6.64526 -0.276317
Si 2.24056 -9.2615 6.98762
Si -4.33403 6.77532 -1.4228
Si -7.30515 5.60187 2.54971
Si 4.31556 4.49103 2.13449
Si 10.4491 9.79153 -7.57079
Si -8.27093 -6.8078 1.05639
Si 2.28689 -2.9224 4.8582
Si 8.23426 8.00276 -6.71752
Si 2.96418 0.0664631 -6.2173
Si 10.1621 -9.45232 5.30595
Si 4.2467 -2.33716 -2.0836
Si 6.04409 8.44516 6.84288
Si 0.855568 -7.04376 -0.87616
Si 8.71534 5.80454 -2.67409
Si 3.73463 -6.46806 -7.80018
Si 6.40928 7.83381 -3.18171
Si -6.44216 -10.0679 8.04053
Si -6.48953 4.01464 -4.87929
Si -9.26754 -3.74049 -8.06465
Si -3.80769 2.15514 -7.92517
Si 7.14742 -5.09547 5.94167
Si -6.99094 5.16115 -2.03072
Si -4.57169 -1.65659 -7.47614
Si 7.66841 -8.35169 -5.69522
Si -0.96909 9.31289 -7.64626
Si -8.12099 0.466657 -5.94856
Si -7.0099 3.34684 0.342562
Si 10.3428 8.91585 -4.74874
Si -0.122006 -2.30452 8.09605
Si 0.203044 9.82472 -0.51768
Si -5.22663 -5.62692 -2.2819
Si -1.88105 -2.65263 -2.66249
Si -5.54292 4.88234 5.01968
Si 0.178069 6.78618 0.227216
Si -1.38914 -6.26474 -5.56673
Si 4.4756 -4.10201 3.24144
Si 7.86828 -7.97322 6.7803
Si 6.85932 8.86948 -0.371778
Si 5.99837 -9.43167 3.53384
Si -1.83762 0.0396063 -7.74878
Si 2.97031 10.3856 -5.77948
Si 5.41832 -1.83746 -6.81303
Si 1.72166 -9.07176 3.88639
Si -6.23208 9.17943 5.63
Si -7.95774 -1.74872 8.09756
Si 6.53739 6.47625 1.52525
Si -10.0061 6.32973 4.12843
Si -1.74961 -4.87378 7.53889
Si -5.71776 -1.17816 -4.69125
Si 0.436035 -5.32723 4.12142
Si 8.42708 2.87541 -7.37794
Si 8.93596 4.30536 4.94199
Si 2.5216 10.0309 1.55742
Si -3.57311 6.58654 3.33542
Si -9.75308 -0.0828205 3.80707
Si -7.65196 -8.03357 -6.42839
Si -2.44218 0.793987 6.04176
Si 4.72544 -0.194174 1.99794
Si -9.75547 9.71574 -1.87754
Si 8.11938 6.20726 7.33767
Si 5.46476 -9.5117 6.77199
Si -9.78042 5.86262 7.38076
Si -3.75493 -9.45379 -5.50267
Si -5.07264 9.56886 -0.07969
Si 2.80274 -2.69221 7.94835
Si -4.36982 -6.56296 -5.01017
Si 5.99843 3.47607 -4.2407
Si 6.15565 9.86772 -5.66012
Si -4.98459 -2.51397 -2.09612
Si -7.89459 0.753009 6.2221
Si -1.16148 10.229 -4.54682
Si 6.49599 8.59129 3.65513
Si -0.347586 -3.32712 -5.13988
Si 5.47974 4.41822 7.83857
O -8.39086 5.82829 -1.63493
O -1.8007 7.59381 6.39175
O -10.1654 -5.71491 4.12221
O 0.203423 -7.56927 0.563245
O 6.76438 -1.19013 -7.17467
O 2.36165 7.35367 3.89926
O 2.61033 6.70836 -7.4367
O -8.942 4.44777 -8.24539
O -0.220212 2.14049 -4.53195
O -9.18561 1.35164 -2.06166
O -9.69593 6.2621 5.77763
O 1.54461 -4.20701 4.21152
O 5.64449 3.10033 8.76577
O 3.65168 -1.26896 7.57952
O 3.40064 5.83893 2.06304
O 5.00784 -6.06038 -0.316132
O 4.95031 7.11488 -3.10671
O 3.14176 1.59874 -6.71989
O -6.51539 -10.3977 6.37332
O -2.99457 -8.18891 0.0451388
O 6.88475 8.90276 -6.71515
O 5.77572 9.97851 7.10023
O -2.04029 3.86224 1.09732
O 9.02733 -7.23595 7.5964
O -1.72743 -6.92435 -7.04428
O 1.27725 -0.00762081 -2.48248
O -10.0412 -5.54062 6.70501
O 6.15076 8.34807 5.18412
O -2.5047 -4.8595 8.96246
O 3.12934 -7.75798 -8.56407
O 5.96957 -3.62524 3.07639
O -10.5019 -0.278186 -3.71375
O 0.0614913 8.23343 -0.442139
O 9.31825 8.63634 -7.7242
O 7.46723 7.72104 7.25571
O 5.89063 -2.23638 7.90074
O 6.98827 -7.49321 -6.91869
O -4.0841 6.40514 -7.36315
O -7.9168 -9.62049 8.32747
O -9.79522 -2.2562 -7.88451
O 4.64197 -8.46677 -0.499257
O 5.65332 0.509455 0.934983
O -4.82857 -3.08758 1.32872
O 1.79832 -9.5034 5.43041
O -0.292385 8.91313 8.07259
O -7.66037 4.14716 -5.99491
O 3.78592 -0.766822 -2.35648
O 9.34253 3.88829 0.635045
O -9.62462 -7.45346 8.37508
O -0.494833 -3.47441 0.361567
O 8.26347 9.37201 0.225131
O 1.30185 -1.65585 4.67533
O 9.51532 -0.194961 9.06105
O 0.350499 -6.07812 2.73388
O 0.992353 -9.17356 -9.04282
O -2.53978 1.35109 -8.45926
O -3.46278 5.62441 2.03746
O 9.84816 -4.23285 0.0613749
O -3.31051 -2.25344 6.97036
O -1.44397 0.500469 -6.23282
O 5.85727 10.1004 -0.243991
O 8.8329 4.50118 -3.52153
O -9.0336 -4.64414 -6.66742
O 7.63673 1.62511 9.23033
O 8.57702 1.6204 2.00312
O -8.19825 -4.21709 5.1053
O -9.22446 -0.520644 2.40246
O 0.313749 8.3251 -7.82232
O -8.93288 1.92686 6.6943
O -0.0418813 -9.72235 -4.06849
O 1.37031 -2.47736 8.61361
O 7.30205 -4.75674 -0.0284999
O -8.72021 -5.32529 0.592238
O 1.67032 -0.549013 -6.88422
O 7.3128 -8.91244 2.7324
O 8.06078 -2.41549 4.50936
O -9.22978 -2.63181 0.646843
O -9.18449 -8.29701 -6.65282
O -7.76084 -0.41271 7.27996
O -9.1621 9.02811 -7.57248
O -3.19354 8.7047 8.27844
O 2.28649 9.05365 -6.27952
O -7.16634 -0.649044 -5.27049
O -8.07832 -4.55342 -4.14065
O 9.00346 -2.80838 8.95547
O -0.584853 0.754142 -0.922622
O 1.46509 1.44923 0.686518
O 0.154343 4.5883 -5.12652
O -8.47958 10.4786 -2.26186
O 2.6918 8.34827 -3.15226
O -6.08062 10.3204 -1.06965
O 0.363104 -5.53318 -1.1033
O -6.59447 -7.04116 4.32788
O 3.60326 6.63644 -5.21916
O -3.51618 1.86946 1.96311
O 6.71268 -0.104123 -1.29524
O 7.21405 -6.66775 6.04718
O -1.28991 6.29715 0.602834
O -5.32229 4.85383 -5.68889
O 3.94803 -3.76933 8.45138
O 10.386 7.67533 3.81959
O 4.43832 -2.71253 -7.76797
O -2.35996 8.48035 -7.53398
O -10.417 6.11509 0.0572978
O 7.48477 6.59886 -3.25871
O -1.71324 4.89419 5.62967
O -4.46607 -7.97852 2.93579
O 2.43512 -7.01674 -0.819485
O 7.95328 -5.69895 -8.43002
O 1.12808 0.808543 5.37167
O -5.92896 2.32816 0.939216
O 9.64798 3.05733 -8.39397
O -5.78214 9.52213 1.41833
O 5.82893 -9.35356 5.15686
O -9.62083 4.28952 7.638
O 0.158134 6.514 5.06429
O -6.98624 4.60936 -3.53081
O -6.30813 9.09192 4.06391
O -4.92621 -0.278776 1.37788
O -2.71273 -9.05109 4.64339
O -6.26752 4.83657 -7.92465
O 6.19202 8.89478 -4.34693
O -2.96626 -3.00503 4.52514
O 5.47102 -0.340424 3.40451
O 3.52529 -7.03396 1.44025
O 3.71381 10.3668 -1.80828
O -1.42484 -1.757 8.76345
O -0.874402 9.94229 -6.13882
O 0.909912 3.92644 -2.7543
O -1.35002 6.49293 -4.05926
O 7.90989 6.43084 -6.88302
O 5.76902 -4.44335 6.56138
O 7.60459 -4.78696 4.44058
O -4.22458 -5.75256 0.738945
O 2.00829 -7.79577 -4.24694
O -4.87819 -6.4748 -6.54269
O 9.73783 6.25879 7.83342
O 5.06332 3.80954 -2.90586
O 9.85777 3.41931 5.98485
O 9.93628 2.18934 -3.56203
O -9.71937 -0.120223 -9.45115
O -2.14101 6.78195 3.95419
O -2.62221 0.0908708 7.46804
O 5.86922 -2.31579 -1.9968
O -5.67621 7.15858 8.10303
O 9.992 5.14431 4.01164
O 2.87324 -5.37553 -4.28214
O -7.03286 -1.6504 1.34781
O -5.37717 -9.00955 8.47566
O 0.699108 7.10658 -5.74939
O -5.01602 -4.10298 -1.93341
O 1.67242 -2.64828 -8.06472
O 10.248 1.51844 -0.039653
O -2.55418 -10.0648 -4.58898
O -8.822 -6.59777 -2.68162
O 6.74184 -6.64813 -1.95841
O 8.29618 -1.53695 -2.84619
O 5.2267 3.83981 6.37636
O 5.74424 -2.76386 -5.49012
O 5.69727 5.0685 1.46112
O -5.49624 -1.76118 -0.757795
O -6.66838 -4.26423 -6.56076
O -4.95392 0.250119 -4.35904
O 4.89362 2.66599 -5.14744
O 7.07798 -9.84504 -5.58136
O -7.15044 7.97566 6.12675
O 4.19261 5.39935 8.25788
O 5.00225 -8.29489 3.10843
O 10.4417 10.0705 -5.90299
O 7.54425 2.11958 -0.234363
O 7.85552 1.40228 -7.22485
O 10.0584 9.52818 1.86408
O -1.55884 6.1818 -6.58388
O 10.3202 -3.47919 5.24376
O -3.08548 -8.50898 7.32993
O 3.34546 1.79933 -2.58202
O -1.39215 8.89151 -3.70282
O -4.08942 -1.60261 9.35466
O 10.5025 -4.5324 -8.7274
O 4.31584 -0.682009 -6.41051
O -7.81247 -7.82471 6.61264
O -6.32517 10.1557 -3.68791
O -5.08078 -5.33994 2.98323
O 8.09487 8.91981 3.53587
O 8.12432 6.15872 1.42512
O -6.63402 -7.85487 -7.66316
O 3.79194 -4.0025 1.78914
O -1.83097 2.28762 6.17782
O 10.4608 9.47393 -3.27343
O 3.41275 3.20645 1.67189
O -8.7025 1.28956 -4.73933
O -5.05498 3.32521 5.15072
O -0.697674 -3.71501 7.39735
O 9.18171 -8.39125 -6.06855
O 10.5082 -8.26434 4.32715
O -0.429038 -7.26348 -4.7195
O -7.31543 1.27393 -7.12438
O -0.819789 -2.5385 2.71225
O -5.16842 -5.82324 -3.88412
O -3.41148 -2.12514 -2.39451
O -4.36515 5.86995 4.52579
O -8.2671 -7.6604 -0.28542
O 0.38088 -8.69411 3.04279
O -0.23179 -2.33166 -6.35831
O 9.41177 -4.7065 -6.48177
O 7.2721 2.58313 -3.92318
O 9.66654 -5.26296 8.98903
O 1.18427 10.0484 -1.88761
O -1.01008 1.54704 1.57321
O 7.267 3.9684 -7.57108
O 6.31279 7.47835 0.305485
O -5.4929 1.39584 3.38144
O 1.90001 10.416 7.8235
O -7.76721 -3.60172 -8.61895
O -6.51904 7.06324 2.36269
O -3.49589 5.72431 -0.555313
O 2.32668 7.78917 8.39604
O 2.23667 3.05628 -4.79095
O -5.78216 9.55908 8.56514
O 8.20307 5.36754 5.92327
O 7.90013 -4.078 -4.61365
O 8.20645 -4.53094 7.08926
O 2.75063 -10.4341 -4.18226
O -5.20939 1.82213 -8.75609
O 8.48382 -0.474964 -5.33201
O -7.27465 4.67468 1.26687
O 2.5951 6.37129 6.35482
O 2.86082 -3.45472 -5.92337
O 9.92887 2.13364 8.17701
O -1.93437 -5.82501 -0.2071
O 5.8696 -5.2608 -4.05463
O -3.06849 -9.01308 -6.83281
O 0.51589 -6.38579 5.34112
O 6.16868 7.31414 2.81579
O -0.901337 -6.25771 7.35636
O 10.1553 6.48686 -2.38233
O 2.45789 -3.21213 6.48563
O 3.01114 2.80827 5.28109
O -3.88874 3.72955 -7.55702
O 8.71369 -9.04946 5.9148
O -2.73023 -4.28706 2.31489
O -3.01233 -4.67689 6.50161
O 3.42033 0.738385 2.16272
O -4.04654 -7.43654 -8.59366
O -4.29499 -6.61095 8.88479
O 6.85159 5.33038 7.97324
O -6.70676 -1.99202 9.20699
O -7.12923 -9.40728 -5.72462
O -4.8626 -3.97727 9.44781
O -8.37608 6.53091 7.92331
O -1.28098 -0.045467 5.17071
O -6.71778 -5.46234 6.46769
O 3.71031 -6.90976 -6.21681
O 8.35732 -3.48947 2.04208
O -6.8883 -8.57752 -2.45066
O -6.57005 -6.23724 -1.69299
O 7.12735 -7.47873 -4.42905
O -2.67945 -9.79498 2.06473
O 2.55515 5.84243 -2.87361
O -9.45827 -7.27928 2.07812
O -5.76198 -0.598829 -7.95468
O 1.04884 6.86072 1.59919
O -9.48139 -1.76585 8.57738
O -1.13633 -10.2705 -0.205209
O -7.61825 -2.94083 7.12485
O 0.105549 -1.18818 6.89418
O 2.63246 -7.76627 3.74239
O 4.58122 10.1879 -5.96519
O -4.26182 7.95057 2.90503
O 1.45197 -7.90112 7.33198
O -1.59277 -8.25059 -9.12719
O 4.17149 -1.57542 1.32128
O -5.28506 -7.4939 6.59802
O -5.6153 2.66876 -4.63809
O -5.74344 -2.09254 -3.39898
O 10.1931 -1.065 4.36205
O 3.59129 -3.12981 -3.31877
O -9.8545 -9.44059 6.52626
O 3.08556 4.031 -1.15065
O 4.60099 -7.26139 -3.77011
O -4.2522 1.49559 -6.53586
O 1.34659 8.53096 6.19718
O 4.74201 7.65428 7.33557
O -0.486612 -0.695935 -8.28615
O 5.339 1.7302 4.70909
O -9.18294 -4.28735 -1.71738
O 10.4523 10.386 -0.730872
O -4.84199 8.77468 6.37965
O 5.10217 2.15904 -0.920978
O 10.0854 -6.90682 -7.90195
O 3.0573 -5.02546 -7.9648
O -3.10505 -1.01028 -7.68965
O 5.72024 -0.358326 6.05716
O 5.38569 6.00568 -7.14119
O 8.91672 8.34236 -5.24297
O -8.68518 -0.154569 -0.103602
O 10.3939 -5.00769 -3.94831
O 1.72967 -2.62809 1.25103
O -9.36294 -0.0304128 -6.84652
O 2.50729 -9.50368 -6.81387
O 3.54656 4.33446 -6.59778
O -9.35816 8.21616 -1.32267
O 2.66949 0.105789 -4.63315
O 10.3288 1.25485 3.75965
O 4.59711 4.11661 3.68024
O 3.74162 -3.08437 4.21923
O -5.40918 -3.47499 5.69374
O 8.28772 3.16101 4.12375
O 7.18044 -7.17733 0.666016
O -6.88042 -6.90707 1.87189
O -1.98653 10.2162 6.61429
O -8.39937 2.55879 0.175633
O -1.77249 3.09992 3.66485
O -3.1321 7.70819 -5.23522
O 0.324938 3.29335 5.21541
O -6.45713 5.5147 6.2403
O 6.75602 -4.43315 9.00876
O 8.02785 -2.33394 -0.487166
O 5.74232 9.98599 3.20925
O -1.41561 -2.88672 -4.12554
O 3.48931 -2.83174 -0.784173
O -7.6707 -6.57565 -5.72724
O -0.747529 -8.55769 6.18431
O 2.89412 8.45245 1.66029
O -1.01218 -4.54865 4.33462
O -1.69402 -4.02162 -1.87471
O 0.450746 -7.8891 -2.20224
O 5.24294 -6.29991 -8.3699
O -4.41195 -8.1554 -4.80081
O 3.67518 -10.2495 0.790087
O -1.80327 -7.58433 2.64496
O -6.44929 1.27612 5.83275
O 6.32774 -4.94829 -6.56292
O -6.67486 3.96661 -1.07494
O 5.45578 0.473057 8.45034
O -0.662612 -1.70881 -1.98015
O -7.36516 0.665971 -9.66646
O 0.942674 5.73246 -0.788639
O -9.361 2.37589 -9.8145
O -5.89435 -5.54601 -8.64798
O 9.82319 -2.62133 -4.71816
O -8.7539 6.06657 3.10815
O 8.92499 3.15436 -5.83365
O -4.04283 -6.50311 -1.66081
O -6.50965 4.88843 3.73047
O 0.0259245 -0.813417 1.00252
O -4.85663 10.5001 -5.81187
O -4.87116 -1.81727 -5.90939
O -3.36321 7.22431 -2.58403
O 8.38273 5.54535 -1.06219
O -7.12709 8.90885 -5.92746
O -5.71341 6.24892 -1.9862
O 2.36539 -10.2801 2.99137
O 10.3136 -9.71714 -8.072
O -9.45048 7.96154 -5.21312
O 10.1818 10.2446 4.45385
O -4.69605 8.08323 -0.536323
O 1.08985 -3.31239 -4.35823
O -5.07807 -3.00926 -8.1611
O 7.74266 0.646027 4.41995
O -1.21501 0.152213 -3.43575
O 9.09623 -7.1792 2.55398
O 6.83136 8.6947 -1.94876
O 3.87289 -9.18254 6.99028
O -0.978602 10.3908 -8.81377
O -2.90488 1.89308 -4.46189
O -3.83798 0.951287 5.32837
O 6.54264 4.59634 -5.2754
O -3.66836 10.3198 -0.115141
O 9.30308 -0.499972 -7.79902
O -0.76278 -4.8073 -5.56315
O -8.09705 6.57282 -6.94764
O -2.81571 -6.12337 -4.90788
O 1.16021 10.136 0.751432
O 1.70572 2.28533 3.21542
O 6.56408 -8.66592 7.42335
O -8.57075 0.14721 4.89694
O 4.33009 -5.679 3.58363
O 8.88105 -9.24975 0.86819
O 9.63591 -1.58516 6.81461
