588
Atoms. Timestep: 1790001
Si 8.34229 -5.19483 -6.56628
O 8.45683 -4.65006 -8.18538
H 8.81025 -5.29771 -8.78382
Si 6.78155 -3.17382 -8.85643
O 6.5923 -3.42173 -10.4467
H 6.74643 -2.63275 -10.9529
Si 3.94222 -2.86856 9.39582
O 4.31339 -3.82682 10.745
H 5.10052 -3.64023 11.2431
Si 6.46237 -0.872618 9.99195
O 6.78451 -1.47418 11.5493
H 6.71424 -0.808922 12.2238
Si 8.48933 3.41353 10.3229
O 7.83294 3.25636 11.8791
H 8.42806 3.45837 12.5915
Si 3.50872 9.84376 8.45091
O 3.28951 -10.2784 9.77872
H 2.49092 -10.368 10.2854
Si 4.9651 6.73526 8.58176
O 4.72177 8.20125 9.49716
H 4.86577 8.14922 10.4347
Si -9.52302 2.48408 9.91666
O -8.49516 2.96208 11.2089
H -7.6339 3.23567 10.9159
Si -7.79682 -3.22101 -0.433474
Si 4.86871 -1.70024 4.87031
Si -5.7556 8.30731 -8.21122
Si 3.82572 -0.785426 1.90568
Si -3.52379 -2.9084 -5.82138
Si -6.71042 -2.67035 -3.23331
Si -7.80801 8.55952 0.324532
Si 2.65167 -7.72364 -0.682817
Si 10.1174 -3.08161 -0.23049
Si -1.06754 -4.48917 5.4767
Si 4.43943 -3.93388 -6.98844
Si -2.84585 7.56083 -0.662934
Si -8.35283 3.76808 7.3895
Si 9.89303 8.90078 3.49802
Si 3.97528 -4.25031 6.59314
Si -7.52889 -3.64877 4.86959
Si -1.93646 -0.570515 2.10821
Si 7.57384 -0.430092 -7.5882
Si -4.61631 -0.931997 6.00864
Si -3.03064 1.3373 7.46101
Si 6.37372 -5.73935 5.52531
Si 5.92448 3.42289 -1.43008
Si -2.23106 9.57106 3.71363
Si -6.95492 4.29373 -0.341128
Si -0.562094 4.35417 -5.12069
Si -1.11948 8.68351 -3.07631
Si 3.82278 3.99643 8.61734
Si 9.00372 4.08526 -11.4588
Si 4.70797 -0.760315 -6.29922
Si -8.51923 -7.97999 -4.89962
Si 9.58139 -4.90094 -2.76725
Si 2.62658 -9.74822 1.86023
Si -9.43515 6.43106 3.43422
Si 9.5906 4.98519 1.45104
Si -5.948 -6.38477 5.4033
Si -8.63119 -8.05512 5.10983
Si -6.7398 0.194532 -4.20211
Si 3.86903 3.97268 3.16002
Si -9.32161 6.01308 -0.546094
Si 6.12993 5.559 -6.26753
Si 5.32241 -1.17908 -3.34341
Si 3.80234 6.07574 0.99514
Si 7.66173 2.35029 -9.03481
Si -3.89546 -10.4244 -6.95529
Si 1.99051 1.76939 8.39661
Si 2.35734 -4.25758 2.55556
Si 6.19992 8.21161 -7.94567
Si -5.04142 -9.84918 2.37054
Si -0.79884 4.08725 -9.22181
Si -4.95696 4.67551 -4.47593
Si 1.3495 -1.12219 8.87601
Si 2.21271 3.76431 -5.91924
Si 7.97532 4.47014 6.30691
Si -1.15268 6.12653 7.21281
Si 2.43629 1.09234 -7.05926
Si -7.9857 4.9164 -5.35814
Si 4.23103 -5.89482 -4.41752
Si 5.52124 -9.58191 1.03004
Si 0.753239 -5.56113 0.109809
Si -5.75921 -9.70097 -4.48768
Si -9.74342 -5.20751 -5.37257
Si 10.1853 6.43426 -8.18241
Si 1.85555 8.23268 1.49577
Si -1.65402 -0.870035 -1.01211
Si 7.91169 0.860924 2.95679
Si -2.97962 -7.46198 -6.38586
Si -4.0312 6.13825 6.68479
Si 10.0093 -9.63195 -5.10374
Si -3.51982 -2.42726 -2.84236
Si -7.811 1.21672 2.89783
Si 1.00228 -1.30223 3.03556
Si -7.37199 -3.51498 -6.24562
Si 9.56614 -5.32849 1.66618
Si 8.42527 -7.76969 -2.97225
Si -4.08486 -2.98139 8.09995
Si 10.4373 1.92278 1.46939
Si -5.36178 3.06974 3.96226
Si -9.26286 -0.259291 8.31832
Si 1.6211 -5.79545 5.30345
Si 0.640164 -3.04196 -1.73991
Si -2.06066 2.3374 -6.73824
Si 10.3144 -10.169 6.00787
Si -5.30055 6.33746 -2.14897
Si 4.87422 -5.45116 -1.37957
Si -5.17074 1.84381 -0.289424
Si 7.62972 -8.67691 5.05448
Si 3.25641 4.87068 -1.91422
Si -0.268349 6.36906 0.149615
Si 8.68952 1.49337 5.77438
Si -2.90324 -5.32818 -1.86276
Si -5.34714 -2.22143 3.29537
Si -8.9536 6.72872 6.51282
Si 10.4797 3.71076 -4.07572
Si 4.90718 3.85959 5.73614
Si -4.78493 -10.2986 5.32059
Si 3.70536 6.12633 -4.5218
Si 1.5028 -7.09568 -5.25277
Si 1.37482 10.0153 -2.45148
Si -8.01966 -7.79999 -1.83677
Si -3.79717 4.15865 -9.6986
Si 1.4615 -4.43959 -6.99288
Si 3.78535 -2.50323 -0.89002
Si -3.89508 6.02879 -7.11863
Si -5.89944 8.29086 2.73366
Si 7.43104 6.37583 -9.87218
Si 7.40563 -10.3569 -6.30244
Si 6.80593 -6.62418 0.597044
Si -10.1929 -5.22418 4.5813
Si 0.912414 8.30863 7.14015
Si 7.87511 7.09348 4.97164
Si 2.18076 3.4896 -8.91064
Si -7.8695 -8.49812 2.13287
Si 9.53631 8.25312 7.42146
Si -2.09704 -5.74508 1.12836
Si -1.13685 9.19598 -6.12231
Si 4.5808 0.985917 6.53931
Si 6.86197 5.86933 0.289776
Si -5.30178 3.275 7.11922
Si 1.46728 -10.1712 -5.54568
Si 8.69711 -0.965725 7.77156
Si -1.12549 1.45582 -2.70812
Si 8.12114 6.12765 8.94739
Si 5.22113 4.11689 -8.78016
Si 0.201934 -1.63927 6.07767
Si -2.0458 6.42039 4.30922
Si 6.07417 1.92161 9.13268
Si -2.69563 -8.26454 6.38147
Si -8.4601 -5.95687 0.571624
Si 9.17536 -0.312313 -4.98735
Si -4.79383 1.7502 -8.25504
Si -9.206 1.35388 5.65278
Si -5.30814 -7.03191 -3.12724
Si -2.73412 -3.41925 2.94743
Si 0.129755 -2.90175 -4.95685
Si -3.44042 -5.66615 7.3337
Si 1.97742 6.98747 4.44051
Si 9.8403 -0.0212521 -0.991534
Si 5.39188 1.89584 1.32961
Si 10.0203 6.55157 -3.08361
Si 8.80066 -9.82297 -0.839874
Si 7.77755 8.24578 -1.64974
Si -5.84266 -0.938844 -7.00017
Si 6.56575 -7.50543 -5.37801
Si 8.2096 -9.91647 2.18845
Si -1.46411 -4.64839 -6.94345
Si 0.241816 4.33682 -2.28406
Si 4.06214 -10.1021 -1.72481
Si -9.26631 -9.91662 -0.21063
Si 7.383 -2.17922 3.44967
Si 2.21766 -8.88252 4.82569
Si 4.7411 7.69979 5.47499
Si 1.17332 3.84273 4.34862
Si -0.812084 6.50401 -7.28705
Si -6.3088 5.87728 -9.85683
Si -8.51999 7.8797 -6.75258
Si -9.57164 8.91351 -4.26078
Si -3.05822 2.31854 2.08596
Si -6.86068 -2.01061 7.51285
Si -6.97128 8.93227 -2.6014
Si -0.503781 3.00874 6.96576
Si 5.57077 -4.47128 2.62974
Si -2.77639 10.4125 0.664983
Si -0.144282 0.306694 -5.40394
Si -9.16143 4.77812 -10.1916
Si -6.46554 5.50277 2.49189
Si -5.34961 -5.48522 -5.69376
Si 7.73326 -3.00101 -4.31936
Si -1.05017 -9.60662 -1.71457
Si 3.77067 8.7425 -6.03435
Si 4.92376 -10.2537 5.87452
Si -3.52603 -7.34651 3.49788
Si 7.48481 1.05416 -2.73838
Si -0.799026 4.29196 2.26875
Si -4.11437 1.78533 -3.35483
Si -6.27599 8.26552 5.91843
Si 5.94312 9.62226 -3.84431
Si 8.81743 4.04165 -6.57023
Si -6.3006 -0.776723 0.879685
Si -7.38012 3.70712 -8.08052
Si -1.27315 -7.17118 -3.71286
Si -0.367126 -10.2454 5.90412
Si -1.58213 -1.03096 8.35371
Si -9.5369 0.845238 -3.4587
Si 8.5858 -3.55628 5.8099
O 10.2632 1.39544 5.37028
O -3.48008 9.97038 4.68053
O -6.4462 2.09482 3.19527
O 1.96847 -5.15151 3.8421
O 4.92137 9.17249 -4.95367
O -4.41926 5.23248 -5.88246
O 0.650963 7.64064 0.629894
O -8.6457 -6.77614 -0.753337
O -8.71306 8.91665 -5.54765
O -4.88018 9.6992 -8.02604
O 0.4858 3.27827 5.66271
O -4.22866 -9.89245 0.845429
O -3.21054 -8.94676 -7.08056
O 2.22042 -0.495734 2.4062
O -6.20587 2.63128 -8.03285
O 5.71113 -4.00226 -7.99385
O 8.17377 -8.77007 -1.7717
O 8.77453 6.83668 -8.97209
O -5.96536 -0.788836 6.82266
O 3.88952 -1.72285 0.582621
O -7.21198 -1.17473 -3.4541
O -2.11225 -0.805204 0.495114
O 8.31055 -6.20553 0.987792
O 6.50749 -3.17575 2.57464
O -8.80126 -6.46664 -5.36914
O 5.1205 -10.279 -2.96754
O 7.12273 -7.44168 -3.86781
O -3.73699 4.8766 -8.26408
O -0.0304849 -4.39202 -7.76462
O -7.44336 -3.38324 -1.99622
O -7.74116 5.57213 -10.6027
O 6.10046 2.83953 -9.01649
O -1.50418 10.238 -2.70767
O -7.52962 -4.63103 0.353754
O 7.21558 7.27864 -0.490242
O 9.93955 9.86583 7.28809
O -8.933 -4.1885 4.36612
O 8.69454 3.6635 -12.8628
O -6.79593 -2.7338 3.71047
O 0.755874 3.72618 -9.65672
O -5.89853 4.50135 3.60505
O 8.23184 5.51533 -10.948
O 1.13318 0.622473 -6.28564
O -0.638166 2.94692 -2.20463
O 0.428512 8.71675 -2.61868
O -2.44375 6.58056 -7.02348
O -4.30711 2.27184 7.82328
O 7.49373 2.73396 9.23367
O -3.02148 -3.74981 -2.12696
O -4.83459 7.29291 -7.37093
O -2.68337 6.51458 7.51845
O 4.97548 -10.0011 -0.41237
O 4.42136 -1.64963 -2.12584
O -9.10511 3.41945 8.7191
O 9.83951 -5.51132 -6.07906
O 2.54818 -8.62211 0.639541
O -7.08575 -8.76462 -4.94593
O 1.64071 7.61055 2.98996
O 10.3455 9.71468 4.81252
O 0.546831 -9.94105 -1.60283
O -2.53018 0.85392 2.47422
O 6.67982 8.60435 -2.79849
O 2.89833 9.81824 -1.90415
O 8.51022 -2.99965 4.26574
O -9.57576 6.333 5.04927
O -2.26303 -4.22212 1.62185
O -2.84318 -6.51437 2.34789
O 10.4846 10.1165 -4.23434
O -0.333573 4.91467 -3.64005
O 5.90559 -5.23799 4.05393
O -5.58798 0.328854 -0.0146688
O 5.06466 -5.46829 6.40288
O -8.36119 0.86469 4.36573
O -6.94964 -2.22176 -7.15755
O -0.323498 -0.577716 2.35862
O 0.710876 -1.18136 4.64686
O 4.2322 -9.87428 1.88449
O 7.79014 -3.83393 -5.75388
O -4.88593 -1.19319 4.46285
O -0.861781 4.55767 7.46398
O -1.29271 8.5896 -4.62983
O 0.415578 -3.13478 -3.38563
O -8.70445 -7.93764 -3.27823
O 0.691129 3.47533 -5.36719
O 3.22137 7.4747 -5.24464
O -0.281186 -1.31968 -5.34714
O 1.58929 7.82427 5.78097
O -2.98047 -2.46715 -4.3588
O -2.25511 0.447617 8.56885
O -4.28216 -3.40399 3.24377
O -3.61081 0.24859 6.40974
O 8.67908 7.86977 3.81905
O 7.78366 -0.746183 2.80159
O 1.73449 -5.0208 1.26529
O 6.92209 9.59353 -7.40381
O 7.12646 -7.18963 5.44157
O 7.68136 0.799236 -8.67163
O 3.57091 7.06597 4.64533
O -1.78487 -9.74314 -0.28596
O -5.20663 7.18674 6.55538
O -6.71564 5.16844 -8.45093
O -8.51483 8.8892 -3.01896
O -9.43782 -9.20169 5.96469
O 4.67048 -0.433666 5.79415
O 4.64431 8.4392 -7.42226
O -8.87748 2.76177 6.29643
O -6.244 8.15296 4.31792
O 0.107588 7.07872 7.72701
O 6.79553 1.61784 2.10119
O 9.89524 -4.04184 -1.48481
O 1.77122 0.348393 9.18981
O 5.18297 -1.78637 9.43626
O 9.65501 4.98522 -3.41594
O 3.58349 0.0024824 -7.13581
O 5.21214 5.99197 -5.0271
O -2.99436 9.00109 -0.0622257
O 4.53516 -0.755626 -4.70165
O -5.48501 6.77236 2.3809
O 8.97887 -9.24914 5.69813
O -5.42328 2.73542 5.54533
O 6.20348 -8.07892 0.97286
O 9.2663 -8.58389 -4.11951
O -7.24098 0.0556137 1.8735
O -2.19667 10.0471 2.16679
O 2.20677 8.93137 8.03695
O -9.65855 -8.87339 -5.5862
O -2.21866 4.10587 -10.065
O -2.57261 9.72155 -6.55953
O -0.553777 -6.06716 0.903318
O -4.96719 -10.2769 -5.74041
O -4.40988 1.99713 -1.75396
O -8.53227 3.62819 -9.22022
O 2.48421 -4.95363 6.38681
O 9.60483 -1.59027 -0.533374
O -2.87896 -1.24837 -1.97631
O -7.48438 -2.89595 6.29914
O 4.8184 2.23697 5.6052
O -2.23684 -7.59856 -4.94998
O -2.40108 -1.84977 2.9321
O 9.94604 3.44857 1.26288
O 6.35264 -9.63208 5.51361
O -7.79384 -6.93267 1.65026
O -2.08421 7.94122 3.8021
O -9.17721 4.50722 -4.44939
O 0.549454 2.10498 7.8401
O 1.35737 -1.37659 7.20206
O -9.2503 0.986425 9.31567
O -1.83214 2.30098 6.82125
O 7.74559 1.23895 4.52759
O 9.36418 1.33045 2.48287
O 0.0431924 -5.56333 5.5864
O -4.37497 -6.75437 -6.16458
O -8.17138 6.38992 -6.08502
O -0.422205 -1.90495 -1.30699
O -6.94637 8.95887 -1.01817
O 1.45439 5.46571 4.53832
O 2.01781 9.83681 1.38225
O 8.38405 -4.12577 -3.46231
O -6.96442 -3.26167 -4.71351
O -7.02099 -1.95339 0.0776698
O -4.95128 -8.51756 -3.7003
O 2.24777 -2.73302 -1.37756
O -1.76206 -4.10083 4.04118
O -5.05721 4.93442 -10.3656
O -9.78811 5.86067 -9.19101
O -0.196438 9.50735 6.81111
O -4.49698 3.17929 -4.07435
O 8.78091 7.59065 8.72425
O -4.62151 4.74482 7.07924
O 3.68318 -9.32803 5.45084
O 8.03224 5.30928 1.21138
O 6.4946 7.65225 -9.47726
O -4.14333 2.18682 0.882628
O -9.79799 6.41496 -2.03485
O 4.62472 0.507292 1.48599
O 6.76018 -10.4156 1.69214
O 6.50715 6.36548 8.97486
O 5.64467 1.15458 7.74973
O -4.12564 -2.40269 6.61107
O 1.57694 -2.88401 2.72513
O 3.94856 4.14582 7.00749
O 3.22593 -8.72678 -1.82051
O -4.8384 -6.00879 6.51984
O -4.26607 -4.33781 -5.36558
O 4.50448 -4.65637 -5.53577
O -1.70885 -5.82246 -2.89998
O 7.37925 -1.88381 -8.32865
O -8.01163 -1.31853 8.416
O -6.2079 5.15226 -1.48843
O -2.66782 -7.54662 4.83792
O 1.79505 4.22098 -2.31439
O 2.15563 -9.26843 3.30681
O -10.1193 7.46289 7.27846
O 6.05373 0.640557 10.134
O -9.03649 -9.10598 1.10983
O 10.4273 5.83813 0.341096
O 4.57253 -2.31955 -6.688
O -9.87777 7.94106 3.08152
O -6.26817 10.1342 -3.46305
O 3.03793 -4.29611 -7.59651
O 4.5348 -3.92927 -0.858584
O 2.74166 -6.4388 -4.45788
O -1.22725 3.11641 -7.98903
O -6.18227 7.50717 -2.84984
O -3.87465 -8.83166 2.93717
O -7.0825 8.61096 1.75575
O 8.57146 -2.32813 6.83702
O -6.39568 -4.78447 -6.67523
O 0.0189933 5.60464 -1.18848
O 4.67739 9.31759 5.31506
O -5.66557 -2.67553 8.41331
O -3.49893 1.92737 -7.2237
O -4.26577 6.91703 -1.08254
O 9.89422 -4.50833 5.7124
O -5.11091 -2.40175 -2.91688
O -4.12382 -6.22722 -2.48574
O 9.88135 2.74174 10.18
O -1.85965 3.30532 1.67838
O 4.57495 10.3978 7.46884
O -3.88202 2.80813 3.33116
O 8.47476 5.24848 7.58221
O 4.61172 3.0845 2.11642
O 2.04584 4.19263 -7.46763
O 4.71442 7.21961 7.07506
O -6.56124 4.86581 1.06819
O 8.48814 0.356883 6.88293
O 9.26512 -6.46457 -2.63873
O 2.56721 3.09554 9.04905
O -5.64424 -9.95544 4.03029
O 9.26717 10.0363 2.63864
O 2.64729 3.3232 3.9794
O 3.68235 3.97119 -9.34056
O -9.56494 -6.66699 5.01624
O -8.88975 -4.00247 -6.03751
O -8.33515 7.11914 0.0151055
O 8.88247 7.3992 -2.34491
O 6.19208 -0.320657 -6.74611
O 2.52594 -2.13878 9.34107
O -8.44092 -8.49938 3.60531
O -8.52105 4.59906 -0.487415
O 6.20796 0.0523547 -2.84536
O 5.06682 -7.12603 -5.15419
O 3.24886 7.53723 1.06542
O 6.88825 2.54363 -2.40359
O -6.55397 -7.23891 -2.13211
O -0.63899 5.56663 -8.55179
O -8.44046 5.32317 7.09366
O -9.12411 9.55297 0.229483
O -0.200373 -1.35679 9.20109
O -9.08899 1.901 2.17035
O 9.44565 -3.79207 1.04477
O -1.40903 -9.1561 6.42452
O 3.99612 -4.15623 2.52829
O 1.10083 -9.68648 5.68108
O 8.51512 7.93303 6.24189
O 7.66904 -0.99954 8.98584
O 6.76099 -8.92152 -6.23076
O 8.76636 -9.46236 0.720595
O -10.2713 0.100496 -4.67202
O 5.656 2.44052 -0.182741
O 1.38514 -6.76625 -0.802875
O -0.1614 0.863125 -3.90107
O -2.29269 -4.92747 6.41971
O 3.46105 6.06407 -2.9431
O 1.4122 -3.34943 -5.84281
O -2.56898 1.41521 -3.35721
O -0.0593705 10.3582 -5.91644
O 9.00289 -10.1066 -6.30789
O -1.06685 -0.986801 6.83576
O 8.05005 5.53189 5.09506
O -9.29405 -2.92351 -0.0791196
O 9.62128 3.42648 -5.39637
O 7.36841 -6.38771 -6.23616
O 4.84343 4.48417 4.33145
O -8.99581 0.407829 6.91793
O 6.23636 -6.10449 -0.832944
O 8.53785 0.616234 -1.62853
O -6.80154 3.47598 7.61685
O -8.12937 -9.28449 -1.19686
O -1.9551 7.81605 -2.05332
O 0.18046 -7.18231 -4.29387
O 6.28286 7.33093 5.06433
O 8.77202 -0.409439 -6.5495
O -10.216 -4.83369 -3.84469
O 10.3773 0.881206 0.214168
O 9.8928 -5.42365 3.23765
O -4.22365 2.56188 -9.54013
O -1.87645 3.47872 -5.53603
O 4.46846 3.884 -1.99126
O -3.8205 -4.52608 8.39788
O 0.484772 -4.36541 -0.901926
O -1.12002 6.39489 5.6193
O -10.4777 7.46265 -4.31053
O 6.06011 -5.5428 1.60915
O -5.24037 0.734092 -3.92377
O 8.74109 -1.76481 -4.41635
O -5.34156 0.187028 -8.00985
O -7.68228 7.71062 6.37819
O -4.072 -9.06336 6.19571
O -9.99957 7.62014 -7.41139
O 6.45339 -1.86525 4.69104
O 8.23377 9.73686 -1.1544
O -1.12336 0.541203 -1.43764
O 8.62228 3.02922 6.27111
O 5.4128 5.99977 0.935191
O -7.1405 -7.4571 5.633
O -7.30059 8.36536 -7.60989
O -2.80801 -7.12166 7.49283
O 6.32379 4.1735 6.3183
O 5.03983 3.12196 9.29706
O 9.69586 5.25822 -7.22245
O 1.53096 -10.4291 -3.95378
O 10.4196 -9.76641 -1.07906
O 7.17706 10.1158 -4.78314
O -10.0777 0.0209504 -2.15499
O 7.42373 4.768 -5.96807
O -4.56605 -1.73572 -6.37216
O 4.2007 -3.01224 5.61677
O 10.3971 5.4936 2.73147
O -6.57781 -0.11709 -5.7681
O -7.99496 5.91912 3.01029
O 2.97743 2.34617 -6.02728
O -1.28114 -8.24952 -2.50317
O 1.31656 -5.97896 -6.41072
O -1.27062 1.05346 -6.23097
O 8.25856 0.732019 -4.16998
O -10.2209 2.32512 -3.39626
O -1.0104 10.2671 4.50635
O -1.58887 5.24519 3.37773
O -4.99279 -6.8357 4.09681
O -0.882394 -3.99667 -5.50725
O 3.22829 5.36505 -0.361286
O -2.62932 -5.72353 -0.358817
O -4.88973 9.43862 2.46737
O -6.47325 -9.23249 1.86511
O 3.30447 5.23277 2.30927
O 1.95689 -7.34942 5.09274
O 2.22286 1.9084 -8.40968
O 4.02554 5.54519 8.99509
O 7.93321 -8.93066 3.41813
O 3.16544 1.36851 7.3363
O -6.68125 -5.00391 4.9941
O 7.37573 -4.62687 5.98958
O 8.23193 3.08539 -7.63537
O 10.2026 -0.900011 8.29661
O -2.78335 -2.10691 8.53036
O -9.98248 -5.71067 1.05194
O 4.69807 -5.49152 -2.98773
O -0.277741 -3.17251 5.97303
O -1.79533 6.76044 0.205205
O -5.92347 -6.02536 -4.30891
O -4.44182 5.61983 -3.30316
O 6.64649 4.68903 -0.815948
O -5.26797 -1.49036 1.91819
O 2.60635 9.86689 -6.11711
O -5.64084 9.7221 6.20001
O 4.20257 -3.7673 8.06986
O 5.1584 4.64401 -7.22492
O 6.26657 5.23003 -9.41165
O -6.50389 2.74234 -0.365997
O -3.42232 5.98905 5.12326
O -0.332699 5.62503 -6.03416
O -2.6037 -3.48539 -7.01977
O 6.35783 -2.36975 -3.80027
O 0.256194 3.52288 3.15335
O 6.46842 6.94145 -7.05295
O -10.3447 4.32102 -11.1225
O 3.83956 -6.57503 -0.765874
O -2.02659 -6.16779 -7.02517
O -7.92231 3.92092 -6.61738
O 2.9926 4.82012 -5.03561
O -5.90694 7.4015 -9.60282
O -6.58089 4.73301 -4.66225
O 8.5684 5.03876 10.033
O -0.439969 8.05499 -7.08737
O 8.48503 2.94499 -10.288
O 4.48381 -1.32653 3.30473
O -7.98752 1.10201 -3.75092
O 1.6574 -8.61332 -5.77952
O -0.0357175 5.21241 1.22712
