591
Atoms. Timestep: 1790001
Si -5.81558 -5.48578 8.24118
O -7.17261 -5.65559 9.2793
H -7.42472 -4.84519 9.70615
Si -4.34608 -7.74887 9.29856
O -4.85687 -6.79329 10.6277
H -4.64439 -7.1653 11.4756
Si -6.87378 0.818284 -9.68726
O -6.9944 -0.0799419 -11.197
H -6.84024 0.453349 -11.9679
Si 7.16224 6.89855 -8.47356
O 6.05641 6.81785 -9.8108
H 6.37768 6.40369 -10.6031
Si 0.260708 -5.49407 10.1684
O 0.978934 -4.97794 11.6789
H 0.85214 -4.05631 11.8713
Si 5.7609 -4.18121 -9.39731
O 5.41104 -3.79724 -11.0275
H 6.01276 -4.27104 -11.5896
Si 4.67087 -7.09967 -9.5732
O 4.697 -7.34332 -11.2425
H 3.91013 -7.00675 -11.6548
Si 10.0603 7.76167 -9.24269
O 10.3306 7.9575 -10.9272
H -10.2311 8.75781 -11.1641
Si -7.90343 3.73015 -10.642
O -8.84822 3.58035 -12.0548
H -9.59635 4.16079 -12.1316
Si 2.56043 -6.00526 7.96439
O 4.05251 -5.94064 8.76945
H 4.56656 -6.73894 8.80057
Si 3.63224 3.56859 5.68824
Si 3.18827 5.27737 7.48258
Si -0.635972 9.69011 9.74841
Si -3.60044 -7.52438 -0.988545
Si 4.92077 -9.81443 0.371062
Si 9.83203 -2.57163 5.02195
Si -1.75732 6.89129 9.99762
Si -6.79539 6.80705 -7.88238
Si 6.75792 -8.76506 -7.86005
Si 3.83469 6.9937 1.76509
Si -3.1187 9.06966 -1.55116
Si 10.1692 -8.6001 -5.08542
Si 2.19612 4.2363 -2.44956
Si 1.38365 8.65653 -2.30638
Si -9.62327 -2.53941 2.34893
Si 3.3442 0.16786 -6.03394
Si 5.93352 6.95584 -0.4748
Si 7.73432 -0.251411 1.85295
Si -0.624306 9.9832 1.50058
Si 0.259543 0.107742 -4.9306
Si -1.1839 -3.0557 8.69767
Si -9.52146 5.51776 -3.72277
Si -5.19204 -9.32066 5.17171
Si 10.0643 8.75733 7.78944
Si -6.73744 9.64555 -9.20531
Si 4.99329 3.16454 -3.28038
Si -0.106104 4.19493 2.68915
Si -3.9247 -6.75648 6.50665
Si -4.6233 2.37111 3.40301
Si 2.29129 4.33712 0.607698
Si -0.47856 -3.21247 5.62166
Si -9.46123 7.23154 1.55271
Si -5.52291 5.6518 7.21858
Si 6.47291 4.21669 4.54307
Si 8.40874 1.90792 -5.43601
Si -3.28487 10.4963 2.87774
Si -3.32541 5.36688 -8.21785
Si 0.483685 10.2941 -8.51223
Si 7.24673 -1.0593 4.96913
Si -5.15277 4.61015 -3.39716
Si -1.83779 8.68611 -6.16451
Si 1.71831 5.14857 -5.54752
Si -2.23006 9.94031 -9.05945
Si -9.39742 10.398 -8.5451
Si 7.08926 -2.16282 -3.65272
Si -1.25688 2.6799 9.45882
Si -8.90147 -2.74897 6.9197
Si 8.91848 8.27699 2.28635
Si 3.29367 -5.88776 -2.70136
Si 7.8346 -1.14839 -6.26902
Si -3.14069 4.42608 11.5684
Si 6.73263 -9.43554 5.44913
Si -0.291015 -0.0776618 5.19116
Si 6.25451 5.7537 -4.09437
Si -6.39278 -3.86589 -4.12471
Si -10.1621 2.90893 6.74687
Si 4.13653 3.17496 -6.40388
Si -7.32907 -2.4279 -1.47397
Si -5.48041 7.77034 -3.29357
Si 6.43438 2.49298 1.87921
Si -4.67222 8.11543 -6.1743
Si -2.3781 1.48678 -6.00345
Si 2.47036 -8.74405 -8.20289
Si -5.3866 3.55578 9.61458
Si 6.2797 9.32306 -6.69702
Si 6.07528 10.4055 -2.46158
Si -8.07914 -9.47605 0.653358
Si 8.54081 -4.06203 -1.69783
Si -1.69762 -7.20937 -4.65063
Si -1.36056 4.55795 -6.15044
Si -1.22228 -8.26363 9.76264
Si 3.51832 1.48716 1.29841
Si -1.39264 6.79907 1.44206
Si 7.39009 -9.89709 2.38335
Si -0.647182 -2.39873 -3.43643
Si 10.3471 -2.76219 -7.52475
Si 2.18841 9.52032 0.71194
Si -4.77394 0.670771 -3.92522
Si -4.94684 -10.0044 0.254594
Si -4.82015 -1.64885 0.371756
Si -8.50935 3.74399 -6.05704
Si -5.40058 -9.00415 -5.09221
Si 7.86086 6.90318 4.89469
Si -3.5922 5.04368 4.78281
Si -9.25404 -6.77403 0.87589
Si -9.80641 9.31091 -0.757626
Si -4.63006 -3.74885 2.59509
Si 2.82767 -6.83422 2.93212
Si 10.3159 4.35305 1.13953
Si -9.30255 5.23975 -8.26409
Si -3.96344 7.38714 2.74098
Si 8.98364 -7.1898 2.42671
Si -8.28342 -10.2594 -5.57995
Si 6.8408 4.33496 -6.88666
Si -2.84603 -10.1227 -3.98625
Si 4.96929 0.0940273 -3.23086
Si 0.99137 -9.62746 -3.17459
Si 2.59829 0.887817 4.24873
Si 2.40094 -4.48337 5.17133
Si 4.4082 7.80913 -2.96603
Si 7.27558 9.04459 7.23773
Si 0.572215 8.14757 5.45927
Si -7.81329 6.98897 5.95513
Si 9.07133 -7.49022 5.51782
Si -5.31595 5.3383 -10.2704
Si 8.67121 2.32476 -2.33833
Si -1.76855 1.40619 2.72414
Si 0.318264 5.09265 8.43239
Si -1.65319 9.68999 6.62931
Si -1.26326 -8.38593 6.6193
Si 3.50892 8.57861 4.38065
Si -2.58536 -5.84949 1.44989
Si -5.4397 -10.4664 8.15793
Si -9.63052 -1.02368 -2.88942
Si 3.76831 -9.34388 4.35754
Si -2.11943 4.54306 -3.20181
Si -9.82435 -4.02411 -0.335746
Si -3.75288 8.05019 7.89076
Si -8.56875 -0.867039 -7.62606
Si -1.16611 -0.00347845 8.45872
Si 4.21331 -1.94057 4.34557
Si -4.1822 7.91586 -9.96568
Si -0.443982 5.23034 5.38294
Si 8.21464 1.81456 5.58526
Si 3.89611 -8.85883 -3.47237
Si 0.0899088 -7.11528 1.62958
Si -7.80041 -10.2012 3.62905
Si 9.34842 -5.99799 -3.86237
Si -0.951836 0.534975 -0.206757
Si -7.56843 2.08127 8.33971
Si -9.06022 0.382064 1.61638
Si -6.8885 7.82177 3.14591
Si 4.4836 8.10128 7.38856
Si 9.65768 0.0657037 -0.508448
Si -5.80195 1.32111 6.03531
Si 3.75887 -1.15638 -0.472263
Si -4.66501 -9.97307 -7.76691
Si -9.98043 -10.0405 5.76782
Si 0.17574 -5.32472 -3.03989
Si -3.51079 1.59344 8.15376
Si -8.26688 9.576 7.80005
Si 1.19584 8.16299 -6.47011
Si 8.58675 8.09628 -0.60588
Si -6.50391 2.43139 -2.00218
Si -10.3633 2.33015 3.69718
Si -0.168781 2.18354 -2.54865
Si 10.4621 5.94987 6.3392
Si 3.48635 10.3158 -6.01894
Si -4.60209 0.790649 -7.70782
Si 4.86656 -2.25464 -7.07401
Si 4.30607 -6.60767 0.268337
Si -0.260386 -4.6936 -0.0193374
Si -7.49486 -4.89543 2.72864
Si 0.334514 -8.54534 -6.18945
Si -6.79261 -0.75479 7.8851
Si -9.46625 -3.69177 -4.65364
Si -3.52899 -3.76221 5.37955
Si 8.56233 -5.11295 -8.51591
Si 5.53364 -2.41514 1.54851
Si -7.56208 -5.15204 5.74444
Si 0.77329 -1.94541 -0.615275
Si -4.30754 -2.70115 8.17894
Si -8.33471 8.48094 -3.37341
Si 1.74653 9.39344 8.12167
Si -6.01789 1.22862 1.00614
Si 6.96352 -6.33348 -6.05977
Si 7.03397 -5.08896 0.984461
Si -9.51086 3.24666 -1.65708
Si 7.49949 4.19424 -0.297713
Si -5.90599 -1.36975 -6.02096
Si 5.01579 -4.19951 -4.73027
Si -0.888216 6.8239 -1.42466
Si 8.40839 9.92879 -4.3299
Si -3.0129 -1.05328 -1.97715
Si -4.49267 -6.38633 -3.81405
Si 8.99686 7.10725 -3.42956
Si 9.71503 -8.07312 -8.15972
Si -10.3956 -5.12153 6.46221
Si 1.60925 -8.78965 6.58535
Si -0.823546 -8.96005 -0.635584
Si -5.47434 3.60546 -6.39924
Si -9.63526 1.01023 -5.3705
O 3.73674 3.72611 7.30452
O -5.38473 0.895121 -9.14566
O 6.38495 -3.79112 1.76317
O -2.42274 -7.32919 6.56669
O -7.22432 8.30685 -8.40574
O 3.69798 10.1118 3.83825
O -0.761435 1.18219 9.443
O -5.34227 8.35835 -4.78462
O -9.01588 -1.13053 1.96347
O -8.05098 7.22057 2.32875
O -8.66156 10.4814 -7.0857
O -5.34066 3.95572 -4.85223
O 8.26276 -8.59415 2.1022
O -2.06573 7.98362 -1.28525
O 7.57907 10.1903 -2.93705
O -6.89058 3.03614 9.52394
O 9.10424 -6.95966 4.01745
O 2.80186 8.14834 -2.91033
O -2.90697 7.25994 8.94492
O 7.37866 0.407139 5.62445
O 3.09886 2.20266 4.99212
O -5.48761 7.53045 2.4726
O 2.63174 -9.10964 5.36915
O 6.81939 5.69744 4.64658
O -3.4834 -6.75657 0.449143
O -4.30101 -3.34167 4.07851
O -9.97803 -3.26048 -6.12609
O -9.08282 2.30619 7.72015
O 4.23746 -0.580912 -1.93706
O -3.9547 -6.74831 -2.30579
O 1.67576 -9.80267 -9.11365
O 1.71023 9.24731 -0.811336
O 0.198432 -2.08917 -2.13926
O 7.772 -0.755293 3.42141
O 10.2458 -2.29073 3.47413
O 3.53477 0.160669 0.412243
O -6.92088 9.98562 8.46241
O -7.91911 -4.14108 -4.56086
O 7.46375 7.91745 6.11422
O -2.63376 10.2974 -2.50242
O 10.3215 2.55911 -2.43073
O 9.09364 -1.77117 -7.0956
O -10.0149 0.561149 0.274822
O 5.75862 -8.00419 -8.86257
O 3.98362 7.47754 3.31878
O -8.76449 -10.1759 6.86154
O 0.192101 0.959321 -3.48256
O 3.50544 -0.465827 4.37152
O -2.86409 -8.09569 9.67248
O -10.3302 6.39147 -8.66431
O 5.36434 3.73113 -7.25424
O 7.32494 3.09049 5.42134
O -1.74106 -4.85666 0.542612
O 8.12398 2.07318 -3.8033
O -2.00738 3.00446 -6.14461
O -7.07858 -5.38117 4.21592
O 2.22903 9.26809 -5.83257
O 2.72265 -5.64744 4.07634
O -1.86569 5.23419 -7.50736
O 3.30472 8.95523 8.1674
O 0.0275881 -9.114 -2.03624
O 8.12626 -6.18592 -4.8827
O -9.35835 -9.21609 -5.05498
O -2.86468 4.14772 13.0366
O 6.46506 -10.3118 -7.47492
O -9.95183 -2.00912 5.97978
O -7.76791 0.0657975 -8.61756
O 4.8922 -5.61348 -9.14604
O 5.09781 -9.27872 5.22756
O 8.84932 -0.567033 0.748522
O 2.58826 -5.13767 6.64324
O -1.14517 0.617747 4.03269
O -3.62473 -4.99399 2.37937
O -0.983991 -9.86198 10.352
O -10.2873 9.05451 -8.62399
O -8.76406 4.77382 -4.86989
O 0.269823 4.58657 -5.94962
O 9.9045 5.93426 -4.04973
O -4.22888 8.23371 -2.44191
O -5.49358 1.7182 4.56899
O 7.65334 -5.5459 -7.20755
O -10.1981 -9.19405 -8.58183
O 6.59742 7.90952 -7.40244
O -2.02692 -9.77191 6.39763
O -5.07652 -9.07537 8.9211
O -8.48346 2.18974 -5.53772
O -1.39754 -6.73711 2.10244
O 10.0225 -4.1591 5.32483
O -5.20505 -0.148496 0.95422
O -6.1217 -4.23316 2.2318
O 6.72484 5.60749 -0.536693
O 0.196579 -3.20012 0.148537
O 1.86271 8.50395 4.55929
O 9.89787 -7.99157 -6.54339
O -1.38035 3.09085 -3.13596
O -6.54989 -9.45383 4.38888
O 2.86261 4.20101 -6.24995
O 2.78768 5.02037 5.89876
O 0.367562 7.4882 -2.07186
O -2.96592 8.93199 -10.0587
O -0.574577 -6.8756 10.2726
O 0.200359 -0.4996 -0.0135287
O 5.27267 7.17442 1.0318
O -6.71846 2.25437 6.97319
O -3.27378 1.55873 3.02099
O 5.9905 4.40074 -3.25385
O 2.57772 -9.41684 -2.7485
O -9.46318 -2.0024 -8.22733
O 8.53626 7.48319 -8.98258
O -2.18102 3.31771 10.6731
O -7.59823 0.998971 1.3966
O -7.05063 3.86881 -6.73347
O -5.39082 -1.53258 8.30872
O 0.306565 4.33616 4.30636
O 1.91582 5.38299 8.38197
O -0.0438213 3.72645 9.22966
O 7.82012 -4.51202 -0.334006
O 4.74573 6.99295 -1.57427
O 1.15089 3.08592 -2.59247
O -8.13189 2.45355 -1.93397
O 4.37814 -3.20286 -5.8491
O -10.3519 4.52747 6.97177
O -7.8501 -3.60689 5.97841
O -2.01821 4.96796 5.1363
O 5.21875 -3.06634 -8.33567
O -2.81223 8.59781 6.62768
O 6.71342 -7.82604 -6.52689
O 9.38969 -6.54343 -8.74979
O -0.303622 8.1989 -5.83128
O -8.52551 -7.96437 0.21227
O 5.8152 -10.3716 -0.862071
O -4.43009 -9.94582 -4.20135
O 5.72151 -5.41215 -5.51568
O 3.49134 10.446 0.493078
O -3.70865 6.42328 3.98155
O -1.03652 0.688663 -5.73263
O -5.29541 2.08481 -6.91288
O 0.94936 10.1008 1.62552
O -3.64314 4.39262 -2.90947
O -6.07484 1.73329 -0.574503
O 4.24645 8.42317 5.82812
O -5.38437 -5.10251 -3.83082
O -10.1772 -3.20574 1.00143
O 4.52357 -2.22457 2.78187
O -4.64355 6.6696 -10.9435
O 0.182484 -8.40869 5.9142
O -7.2436 9.38837 3.21343
O -8.20653 -1.16578 -2.02709
O 9.62395 9.36177 -0.683064
O 9.20151 1.83536 4.27057
O 3.26665 5.53482 1.29671
O 0.540954 -5.77587 0.818785
O -4.98331 7.14934 7.49873
O -6.28552 -2.00232 -0.342561
O 2.55359 1.23587 2.56653
O -3.14859 7.70325 -5.94521
O -3.5214 1.15521 -4.90486
O 5.76783 -1.65364 4.93255
O -5.29658 4.68179 8.47018
O 5.2218 9.14998 -2.96838
O 1.74218 6.6725 -6.15952
O 4.71511 9.33914 -6.22044
O -0.647786 6.54255 0.0887082
O -3.07058 -6.3669 -4.61317
O -4.96126 -0.672604 -7.09315
O 8.66428 7.55212 0.863747
O 8.32515 9.77857 2.12486
O 7.47656 -8.03171 5.77799
O -1.07162 -10.4246 0.0559109
O 3.01234 2.89746 0.632115
O -6.4448 -0.101907 6.44334
O 7.72864 3.10901 -6.29257
O -4.1168 9.67566 -0.332974
O -0.868803 8.35653 1.75403
O -2.76492 0.207866 8.52766
O -8.03167 -1.79532 7.80856
O -6.88599 8.3151 -2.77444
O -4.73724 -8.96447 -6.5585
O -0.00266102 6.72214 5.12693
O -0.796537 -1.51762 8.88771
O -10.1115 5.77073 1.46801
O 10.2673 -0.772456 -1.7816
O -4.0736 -0.227442 -2.78353
O -3.96133 -2.87068 6.57837
O -1.94125 -3.66274 5.15123
O -4.11367 3.82341 3.89052
O -9.60159 1.29947 2.76753
O 0.0829976 -9.84528 -7.13524
O 1.49539 -10.1527 7.42256
O 4.03222 -4.75142 -3.51464
O -2.24862 9.84399 -5.09366
O 6.55891 5.27444 -5.56744
O -8.23294 10.119 -9.65323
O -2.81796 -3.00782 8.74828
O 10.4253 3.5928 2.60456
O -4.68578 9.53599 -7.06508
O 7.2941 -4.61777 -9.36129
O 9.92483 -7.52275 -3.96371
O -0.63375 -4.19606 9.67544
O 7.18835 -9.82684 3.96838
O 1.9278 4.72812 -0.90201
O 0.0184667 -8.22366 0.528107
O 3.45623 -6.33973 1.58087
O 1.76197 0.107763 -5.55347
O 1.50686 -7.97222 -7.07543
O -0.378038 -5.17816 -1.52832
O 10.5059 -4.91684 -4.2148
O 10.2374 9.63833 6.38611
O 6.15148 -3.34932 -4.06453
O -7.98288 8.29444 6.85191
O -9.59156 4.08907 -7.2347
O -0.791788 -8.24978 8.15854
O 1.70363 -5.61808 -2.78287
O -2.9698 6.81414 1.55151
O 3.84411 -1.01363 -6.95944
O 3.25525 -9.71979 -7.23303
O -5.70322 -0.319303 -4.80801
O -0.574219 -6.47046 -3.75595
O -7.60138 2.20624 -10.0739
O -5.47185 2.30316 2.03568
O 3.24325 -7.62674 -9.01101
O -6.02114 -10.0822 -8.60263
O -8.7327 4.57099 -9.57075
O 2.75923 8.05783 1.22443
O -4.6093 -6.69955 8.02782
O -9.75924 2.69483 5.12782
O 6.45942 -1.10154 1.3851
O 5.94571 -10.0445 1.68436
O 3.3419 -3.13147 4.96909
O 6.49424 3.2038 0.436433
O 0.799108 9.82176 -3.13202
O -3.72397 6.96949 -8.65566
O -4.60544 2.18229 9.12493
O 4.97944 6.73762 -3.99839
O 8.08603 -1.83729 -4.86018
O -9.20195 -10.292 4.42471
O 7.85302 -2.82353 -2.38904
O 3.63195 -8.16868 3.31704
O -8.89862 6.99014 -3.52161
O 8.2494 -8.76619 -8.37528
O 3.6946 -9.68533 -4.84778
O -9.68544 -5.60837 -0.136542
O -2.28573 2.64052 8.16286
O 0.907727 9.42136 9.50396
O -9.67001 9.22479 8.55538
O 9.67071 -4.00502 -8.19457
O -0.862826 5.55498 2.40876
O -1.29291 8.41341 10.4606
O 10.0124 -3.70691 -1.27982
O 0.785384 -4.12691 5.14812
O -9.36688 4.67493 -2.3898
O -0.639045 0.119582 6.76721
O 8.43393 -1.96806 5.50813
O 1.86237 5.14143 -3.86432
O -3.97857 -9.84972 4.25555
O 9.17779 6.07216 5.35232
O 8.11835 7.58535 3.49109
O -9.68338 -2.45168 -3.68033
O -0.308468 -1.71517 5.17111
O 8.77677 4.33849 0.656706
O -0.892698 -7.55241 -6.00114
O -5.35708 -7.61724 -4.38331
O -7.05355 5.88841 6.75181
O -4.29837 -2.57358 1.56934
O 2.31673 -1.87384 -0.682364
O 5.01034 1.68423 1.9208
O -4.02727 4.72322 -9.53879
O -9.15228 -10.5002 0.0727887
O -4.32435 9.49915 8.41777
O -4.26517 -9.9126 1.71154
O -3.7984 -5.29981 5.89186
O 4.9674 3.97453 4.99034
O 0.995525 8.88696 -7.92865
O -9.76556 -3.94819 7.46502
O -1.86533 9.15588 -7.66965
O -9.27316 6.44595 5.53664
O -4.76644 -7.85354 5.73391
O 3.63398 1.63783 -6.60913
O -6.175 5.99287 -9.07546
O -9.30593 9.25674 -2.29898
O 0.801516 -9.01483 -4.65973
O -8.11709 -9.40453 2.27967
O -4.31057 4.53293 -7.127
O -9.84229 3.6289 -0.102715
O 5.22902 1.60563 -2.81633
O -0.19934 4.97761 6.96473
O -5.14399 -4.09224 8.51302
O -2.09997 -2.02029 -2.96248
O -8.10933 6.08061 -7.51817
O 10.221 7.21653 7.37603
O 8.03594 3.60661 -1.62022
O -5.4597 8.90229 -9.86176
O 4.62303 -8.22949 0.240177
O -0.62555 9.22169 5.53156
O 4.12179 0.078461 -4.58694
O -5.66359 1.69147 -3.14251
O 7.46506 6.65289 -3.53621
O -0.255119 -3.91466 -3.73825
O -2.21622 -8.64957 -4.15395
O 5.3509 -9.31058 -3.02216
O -0.522736 6.22617 9.14915
O -6.09433 3.98421 -2.29801
O 7.88187 0.497271 -6.08901
O -6.45437 4.38929 -10.8692
O 4.2003 6.48302 7.57412
O 7.41975 5.36998 -7.92208
O -7.37006 -1.3701 -6.67238
O 9.58867 -6.27296 6.53409
O -3.09529 0.984352 -7.35187
O -2.46132 5.80088 10.9258
O -4.31404 1.32036 6.73499
O -5.4156 -10.1274 6.58058
O -3.50632 8.90243 2.9953
O -9.5053 7.98173 0.0706591
O -0.484492 1.84923 -1.0116
O -4.61466 -8.73412 -0.694557
O -8.32157 9.33077 -4.73104
O -9.48012 0.00526546 -6.63339
O 10.4462 -7.14113 1.73224
O 9.99017 1.82083 -5.48082
O -6.9444 7.33576 4.6716
O -3.73528 -1.80232 -0.754501
O 10.0549 -8.8339 5.73192
O 6.33238 -1.62956 -6.68547
O -0.76619 10.2909 -9.44276
O -1.17535 9.66401 8.18543
O 5.77769 -5.96458 0.445522
O 9.1998 -9.83918 -4.846
O 1.25646 -7.32259 2.64955
O 1.42371 -5.6728 9.0381
O 9.36529 2.12044 6.70819
O -4.5674 5.08059 6.06349
O -6.48133 -5.52592 6.77316
O -8.20283 -5.98681 1.88176
O 7.06851 10.4998 6.57809
O -6.56113 -9.98393 0.390331
O 2.20852 -7.523 7.42445
O 3.787 -7.27011 -3.4782
O 1.20961 0.526403 4.91333
O -3.2994 -10.0024 -8.60415
O 4.57569 3.15338 -4.86942
O -9.57473 0.102622 -4.02551
O 7.98925 -6.00688 1.83163
O -1.94117 5.14367 -4.73284
O 3.69362 3.7627 -2.52213
O -1.74647 -10.3481 2.50186
O -8.50304 -3.65099 2.85228
O 7.57778 1.31502 1.86501
O -1.5118 0.839022 1.23647
O -2.08858 -8.17235 -1.02249
O 9.27966 7.21763 -1.8226
O -8.39925 -3.48309 -0.871075
O 3.67123 -6.06911 -1.17529
O 7.02766 8.06528 -0.925056
O -4.67834 4.13896 10.8796
O 6.62004 3.57836 3.02497
O 9.19763 8.60198 -4.05585
O 8.65415 -5.30252 -2.65983
O -0.174394 -1.3793 -4.60263
O 7.23475 9.48562 -5.44529
O -5.48936 6.17679 -3.53911
O 6.28904 -0.801 -3.45694
O 0.981631 4.15174 1.5349
O 1.12735 8.34995 7.01631
O -10.4943 8.24284 2.40433
O -8.9629 -5.8251 5.99984
O -6.5892 -3.03424 -2.7534
O 5.89612 8.56707 7.88591
O -7.20329 0.547996 8.71502
O -1.39108 5.58233 -2.24727
O -0.542387 -3.31684 7.22041
O 8.54574 9.05938 8.20563
O -1.99424 -0.0267111 -1.24968
O 4.67198 -2.298 0.199141
O 8.74582 1.18796 -1.19402
O -6.8611 -9.58274 -5.26902
O -5.7241 7.06095 -6.76061
O -5.77687 -2.85685 -5.2651
O -1.02637 2.84013 2.65973
