579
Atoms. Timestep: 1790001
Si -4.02829 -7.18145 -7.82524
O -4.60505 -6.00548 -8.95633
H -3.92064 -5.58145 -9.4606
Si -4.56226 -10.1231 -8.93485
O -4.55806 -10.0517 -10.6782
H -5.42376 -9.98413 -11.0635
Si -8.80975 -3.55616 7.05026
Si -7.36119 -1.52335 6.72242
Si 9.10247 0.249835 9.25231
Si -10.3196 2.06294 9.07899
Si 1.78572 -9.86031 0.492356
Si -9.36896 1.21773 4.56656
Si 7.91929 -6.67624 6.34179
Si 2.03019 5.09678 0.709987
Si 5.6779 8.35188 4.24452
Si 9.15726 3.04912 5.42562
Si 3.54539 0.982334 -1.36988
Si -7.35408 1.06146 2.32955
Si -5.73464 -7.6292 5.04381
Si 4.59544 0.256801 3.97086
Si 7.16095 0.732343 5.74727
Si -4.41765 -6.37264 -3.19457
Si -9.00868 -6.6033 -5.12268
Si 1.78736 4.84176 8.86984
Si -3.32023 9.71514 -3.32562
Si -2.83214 9.59055 2.38203
Si -5.69441 -10.4962 1.57026
Si 8.50442 6.71602 7.2522
Si -8.83324 -0.19323 -0.158477
Si 4.73501 -6.49128 -1.37378
Si -4.50772 6.52862 6.67225
Si 0.564251 -9.76127 5.19055
Si 8.49535 9.2404 -0.970491
Si 9.1084 -0.869245 -4.98157
Si 2.72248 2.0931 5.59391
Si 2.27758 -5.82701 -4.68544
Si 3.63427 -4.97949 0.975098
Si -3.26073 6.86371 3.76042
Si 3.65842 -10.0965 -7.02293
Si 0.109413 -4.13201 -6.28173
Si -0.7557 4.91466 4.48282
Si 6.26266 5.9475 -2.88624
Si -5.99785 3.70613 6.25594
Si -1.50918 -5.66802 -4.37094
Si 9.32453 2.30035 -4.39262
Si 6.92248 -0.354812 -7.07835
Si -0.654553 -1.85718 1.33021
Si 7.22735 7.08623 -5.6953
Si -9.66758 7.86514 -7.34814
Si 9.54554 8.11581 4.66187
Si 4.70222 -5.28481 9.0492
Si 5.06408 0.971764 -5.28047
Si -9.55616 7.23226 -4.22031
Si 6.13271 -3.31847 3.91443
Si 0.320249 1.24464 -6.09255
Si 4.96705 -2.54767 8.43214
Si 9.34299 6.4812 -2.2863
Si -0.113251 6.38663 -1.03679
Si -9.87283 -1.92475 -6.90294
Si -1.17821 5.19188 9.52148
Si -9.35029 9.90487 6.15997
Si -5.48981 -1.58345 -1.51577
Si 8.7443 -10.1551 3.49995
Si 10.4997 -9.71192 0.753986
Si 7.48433 -0.885825 -0.482633
Si 10.1714 2.14281 0.497037
Si -3.21171 -0.997618 4.6918
Si 7.96931 -7.54407 -3.18892
Si -6.56836 1.42408 -9.4975
Si -9.4606 4.59526 -0.901529
Si -9.59266 4.92821 -8.48287
Si -4.9047 6.67696 -8.76308
Si 9.3235 -9.34101 6.44069
Si 9.96744 -4.65694 -6.30828
Si 0.204037 0.498602 6.40843
Si 7.18737 -6.4411 0.666493
Si -7.30014 3.21953 -2.42187
Si -1.57194 -10.2744 7.23237
Si 8.03047 1.84181 -1.70926
Si 6.14254 -3.32965 0.762385
Si -5.93526 10.252 -5.03549
Si -6.5802 4.26958 -9.18744
Si 3.19345 -5.93734 3.70177
Si -10.3677 -1.62827 3.51807
Si -0.910324 -6.64868 -7.25096
Si 5.14271 3.82821 -7.82799
Si 6.68588 -9.64994 -6.08382
Si 8.4427 -1.99328 5.61153
Si -0.930731 0.359861 -0.731564
Si 6.2071 4.03666 1.52218
Si 3.5574 -9.37239 -2.18683
Si 4.81399 6.91751 -7.74467
Si -1.08063 -2.41149 6.41357
Si -4.89303 6.01395 1.05132
Si -1.70446 2.72205 2.64311
Si 5.11715 5.227 4.28293
Si 7.73699 -5.81927 3.46998
Si -0.63117 0.0535401 3.41281
Si -2.56242 8.54429 -8.28675
Si 9.22219 2.87029 -8.96088
Si 5.5361 0.932503 1.05096
Si 9.69482 -2.7252 8.48064
Si -0.618696 9.33939 0.031659
Si 6.17162 8.93523 1.13451
Si 3.35718 10.2448 5.04982
Si -8.37918 5.48176 5.65558
Si -0.944991 -1.91969 -2.48492
Si -5.91551 -7.69807 -5.3891
Si 3.97236 -1.43479 -3.49855
Si 1.83349 -1.50259 -5.70907
Si 0.560291 -8.25403 7.85099
Si 8.98875 9.58678 -6.39662
Si -9.63561 -5.09641 -2.35185
Si -1.50016 -8.75375 3.28296
Si -2.30812 4.4803 -2.11877
Si -6.08282 3.15792 -6.17901
Si -3.64338 2.09211 5.21531
Si -2.30989 -2.75303 -5.25158
Si -6.92908 10.4988 4.5245
Si -3.10348 2.23087 -0.144109
Si -1.29347 -9.28064 -1.99052
Si 3.39279 7.22153 7.8895
Si 6.67784 1.49213 -9.43929
Si 5.78864 5.16016 7.23001
Si 1.11175 2.55606 -1.05006
Si 4.80731 -6.68527 6.38586
Si -6.61618 6.04273 -3.49316
Si -8.19521 -5.80168 4.83
Si 7.52709 -6.56702 -6.07352
Si 7.73489 4.09554 -6.37037
Si 5.73397 -4.00114 -3.19284
Si 10.5084 4.68727 7.68939
Si -7.16694 -1.69305 -5.44371
Si 4.32774 10.1723 8.05418
Si 2.09115 4.65289 3.9809
Si 7.11541 9.40476 6.97946
Si 0.64632 -4.76282 0.520981
Si -7.93462 -3.48601 2.60794
Si -1.41545 3.13258 7.10726
Si -2.81577 -7.64559 6.0766
Si 10.2801 -9.1237 -4.57253
Si -2.15496 7.56853 -5.2197
Si -8.60547 10.019 -3.26434
Si 0.787709 -4.39511 -2.6244
Si 2.91925 1.75656 -7.62498
Si -6.72612 9.0426 -7.79158
Si 5.3225 2.96133 -2.85649
Si 9.16159 3.83648 2.54442
Si 4.9508 -4.8394 -6.10217
Si 3.77517 -2.37645 5.47371
Si -9.04205 2.95578 -5.95902
Si -3.1171 -2.71971 -0.198782
Si -6.9567 8.21992 6.44062
Si -0.600999 -7.68005 0.514804
Si -7.28438 0.251409 -2.92049
Si 1.17551 -4.08985 5.11708
Si 6.45558 -9.11513 1.71368
Si -4.59279 5.73316 -5.65367
Si 3.34222 8.95323 -9.28505
Si -6.04307 -1.32333 3.86803
Si -5.16473 0.294905 -7.00571
Si -9.9231 6.11648 3.01312
Si 10.095 -2.07722 0.538111
Si 1.07272 6.38079 6.30351
Si 2.47938 8.13548 -6.05759
Si 5.95167 0.378978 8.73953
Si -1.61273 7.54222 7.66026
Si -4.77811 -5.4416 -0.295451
Si 0.54993 9.05428 -8.45767
Si 4.93248 6.39598 -0.159507
Si 9.66934 -7.04151 -0.791886
Si 1.15346 -8.71506 -3.98336
Si 8.86957 -3.44797 -3.47532
Si -0.723988 -5.49939 7.1724
Si 0.691514 6.50087 -4.16642
Si -8.94585 -7.1477 2.31641
Si -7.98586 9.75709 -0.310783
Si -2.07856 -0.426066 -7.26952
Si 9.80779 -5.11145 1.38529
Si 3.57638 -8.76641 2.79656
Si -7.91388 6.80771 0.710618
Si -7.83426 1.42175 7.33537
Si 4.15661 2.86506 8.42045
Si 4.02251 -0.119892 -9.99296
Si -7.4344 -3.69567 -0.502121
Si 0.147627 3.57852 -3.88153
Si -5.82354 -7.35777 1.89774
Si -4.22981 7.05974 -1.79725
Si 4.26779 -2.18722 -7.67504
Si 3.47225 -8.09849 8.78968
Si 0.847235 -9.08189 -7.03196
Si 7.42945 -4.38815 8.50639
Si 6.40085 -10.0874 -2.85057
Si -5.89044 3.02975 0.471411
Si -5.0614 -3.41929 -4.06486
Si -9.42859 0.846448 -8.22236
O -7.29805 -3.01698 7.52221
O 9.92832 1.22394 10.2013
O -1.18613 -3.82954 7.31722
O -0.0294205 -3.32344 0.998795
O -3.41007 9.89685 -8.41251
O -5.83146 6.37689 -4.84245
O 3.62938 2.56184 6.91513
O 1.72719 -7.2952 -4.34786
O 4.88562 0.286422 2.3599
O -1.22675 -6.5836 -5.61753
O -5.21987 -7.57188 -3.96753
O 3.63461 3.2138 -7.67501
O -0.121488 -6.1265 0.735203
O 4.70667 -5.3739 7.39985
O 4.57946 0.619047 -0.267351
O 0.581378 -9.25202 -5.46777
O -7.91583 0.225226 1.06124
O 4.62531 -3.27677 4.45894
O 3.66351 8.70246 8.34135
O -1.74228 9.4035 1.23059
O 3.61151 7.21783 -6.71714
O -3.22419 5.78265 -2.42507
O 8.49943 3.46904 -7.6226
O -5.0925 -6.42647 0.941316
O -7.81112 -4.65296 3.67104
O -8.98824 -6.85236 3.95915
O 4.994 5.37033 -8.29124
O -8.12754 4.76293 -9.17826
O 1.77418 10.275 4.93547
O -4.90903 4.12625 -5.55367
O 5.99154 -10.4837 0.889608
O 8.9383 7.07694 5.67555
O 4.01733 -6.28792 5.0579
O 8.82669 2.16502 -0.347165
O 10.2663 1.58029 -8.69343
O 10.1018 6.60786 -3.68063
O -5.73539 6.82458 -2.35037
O 4.07084 -5.43894 2.44719
O -1.98652 -6.35971 6.58649
O 7.86115 2.12111 5.67893
O -2.49807 -9.01247 6.96163
O 4.24232 8.99332 4.52015
O -2.41986 0.840661 -0.509966
O -9.65275 -5.43416 -6.05102
O -2.65094 -9.91776 -2.67274
O 8.73815 9.36954 4.10895
O 5.62462 4.48944 -3.2187
O 5.1585 2.16211 -4.19002
O -1.34268 -8.04676 -0.896448
O 6.14463 3.9096 -6.60028
O 7.49458 10.027 -2.08799
O 7.77901 3.9773 1.80929
O 8.26277 8.35615 -5.62074
O 0.491961 -10.4035 -7.92053
O 7.5492 0.247841 -1.65028
O -8.40154 -4.195 -1.65604
O 9.70783 3.99339 6.56703
O 4.84286 -2.67512 -2.90343
O 0.0503302 -1.10193 2.60754
O -0.38706 -5.31465 -3.31267
O 10.0931 8.9017 -7.33732
O -9.00844 1.56294 -6.77687
O 3.45752 5.76157 0.208659
O -8.43778 -10.5053 4.92036
O 4.06684 -7.74288 7.33341
O -7.2439 1.81907 -3.07562
O 0.288164 -2.90104 -2.65214
O 2.46704 -9.03703 -7.08483
O 0.845562 -8.59808 6.25633
O 5.16631 -5.31153 -2.41775
O -6.39907 -2.95184 -4.82416
O 5.67648 -1.39735 -7.24195
O 2.8458 3.66137 8.97185
O 2.63437 6.23999 8.93942
O 9.63489 1.23515 8.0767
O -10.2688 -9.97565 6.86204
O -6.03467 9.24742 -6.35302
O -1.04639 0.602591 -6.54015
O -4.40799 -7.4967 5.95858
O 0.598257 -5.20316 6.2458
O -0.673474 10.4882 5.92346
O -8.78867 -4.80422 6.00069
O -1.23888 5.21631 -1.13902
O -7.2043 4.35252 5.39763
O 10.2427 4.99098 2.30893
O -4.60995 6.09564 -7.27369
O 0.876837 -4.75681 -1.11193
O -7.56947 3.24506 -5.53036
O 6.11805 7.30974 -6.92191
O 7.97488 5.6872 -6.15147
O 9.89159 -1.51019 2.02233
O 7.26175 -9.6145 3.01699
O 0.197986 2.39057 -4.95499
O 4.02009 -9.63385 9.07669
O -8.16418 9.12892 6.96336
O -8.53327 1.23695 5.92524
O 6.38328 -2.93698 2.34512
O 9.77122 -10.3328 -5.50533
O -8.29436 0.123112 -1.65538
O -6.36294 3.65086 -7.72168
O 2.17377 -4.82513 -3.38019
O -0.0173341 -9.06682 3.85659
O -6.5718 -1.32652 5.41117
O 2.07197 1.24169 -0.95106
O 1.24001 8.32501 -7.18022
O 6.62157 -10.1602 -4.53091
O 1.75591 0.946425 6.19172
O 3.37518 -0.0863899 -11.3909
O 9.95062 -3.67966 0.679175
O 5.06811 -9.66848 -6.54394
O 5.60759 6.72996 4.31066
O -0.335916 7.09424 6.71494
O 1.91061 3.28741 4.78968
O 7.31599 5.65165 7.3393
O 7.67687 10.4054 -6.89875
O 6.92165 -4.75754 0.573117
O 8.32342 3.19405 -5.21761
O 5.04129 -8.527 2.09394
O 10.0912 -8.48681 -0.40438
O 5.41885 4.46424 2.93347
O -0.780735 1.42008 2.67544
O -9.83194 -8.38808 1.82828
O 5.50873 0.566088 -10.0667
O 7.8358 5.83551 -2.40439
O -8.18538 6.48225 -3.68311
O -2.04423 -2.4951 -1.42221
O -6.24867 -9.15391 4.9976
O 1.36067 1.70565 -7.29297
O 8.95561 2.43713 -2.84143
O 8.67784 -6.80295 -1.95089
O 3.71441 10.4879 6.57337
O 8.95684 -5.06912 2.7292
O 3.3343 0.850086 -8.84261
O -10.3795 8.85862 5.57946
O -2.24695 5.07616 10.6399
O -4.58809 9.99834 -4.21526
O 9.55326 -10.1105 2.10513
O -0.836227 3.98744 3.16383
O -1.36515 -4.16618 -5.26975
O -0.664795 7.82451 -0.629282
O -5.47672 -8.89423 1.41205
O -2.00654 -1.93046 -6.5792
O 9.33199 -9.28646 4.78809
O -7.44427 -7.20091 1.86153
O -8.76977 3.8411 -2.14787
O -8.30455 8.7133 -7.7346
O -3.73141 8.51493 -2.27013
O -2.13802 -0.512366 3.58657
O 6.8769 0.0321201 0.759266
O -10.132 -6.16833 -1.29313
O -4.45695 -1.62463 3.91529
O -8.73861 6.64334 2.13415
O -6.3308 6.74257 1.15507
O 9.00694 -8.60192 -3.7927
O 1.74844 8.9158 -9.49172
O -10.0011 -7.89367 -5.28726
O -0.988673 8.61387 -8.76113
O 8.86572 -5.77338 -6.62996
O 7.35259 -3.79318 -3.041
O -7.27606 10.1249 -4.12992
O -9.02088 -10.3547 0.551941
O -0.230425 -1.06381 6.84774
O -0.191168 -8.84583 -3.07248
O -10.4982 -1.18601 -5.658
O 10.1365 -4.05482 -2.55251
O 2.08141 -4.71596 1.13634
O -4.66406 1.99757 0.12618
O -9.05843 5.07584 7.04731
O 8.67936 -3.7505 9.2297
O -7.8397 -3.75731 1.06283
O -3.61632 -0.0175111 -6.8885
O 9.12154 0.691782 -4.62263
O -2.41501 -1.86426 5.74472
O -0.319404 0.475877 4.92184
O 4.83767 -10.2386 -2.49301
O -9.46053 -1.67363 0.017712
O -2.2019 -2.18864 1.10392
O -4.35803 -1.79899 -0.470459
O -8.37174 -2.17217 -6.40231
O 9.62354 -1.24838 9.16595
O -5.57565 5.47459 -9.57612
O 0.592367 6.55264 -2.51662
O -10.0177 3.46331 0.0413615
O -2.43866 2.75263 1.23394
O 3.13589 9.61277 -6.12882
O 8.36067 -6.40971 4.82211
O -1.77093 9.22981 7.7307
O 10.3524 4.04808 -9.26433
O 6.34395 -5.26912 9.33311
O -2.86442 2.64013 6.52404
O 0.798528 -8.57275 0.371844
O -5.19009 5.00519 6.89014
O 3.71105 1.51908 4.52723
O 6.0994 0.503065 4.62737
O 9.11633 7.98636 -1.70515
O -5.6321 1.6714 -6.28906
O -1.43397 4.21743 8.24801
O 6.43483 -3.14395 8.13515
O -5.98367 7.8114 -8.55081
O 7.48992 8.59817 0.212027
O 6.71894 -8.5171 -2.65955
O -5.63877 0.604267 -8.54805
O 8.13894 -10.4445 6.76421
O -6.0789 -0.84283 -6.28064
O 9.56079 10.0829 -0.225755
O 9.53186 -2.27683 4.44771
O -9.52958 7.30016 -5.83773
O 4.17027 -2.34792 7.05171
O 5.40661 3.94798 8.28242
O -5.03901 -2.61518 -2.74919
O -5.01188 -7.03509 -6.5443
O 9.75452 2.45336 2.00567
O -5.06493 2.79246 5.29008
O 1.19314 -0.0325578 -5.54378
O -7.35363 -0.170483 7.51632
O -3.03791 6.91373 7.16122
O 4.06375 -7.82539 -2.04335
O -3.20588 6.31928 -5.12175
O -4.42102 -6.2822 -1.60964
O 4.57025 -3.67151 0.659322
O 1.92121 -8.189 8.6725
O 3.81111 -9.56222 4.13369
O 3.72678 -5.84918 -0.376559
O -8.89124 1.75878 8.47654
O -9.26116 -2.73402 3.01152
O -3.61278 0.43229 5.29754
O 4.69367 6.40081 7.47051
O -9.28638 -5.96633 -3.65128
O -8.33898 5.50997 -0.167023
O -0.517215 1.78071 7.18629
O -2.81079 2.51664 3.83308
O 6.13674 8.68461 2.73812
O 2.36009 7.27847 6.60709
O -7.43774 -7.04321 -5.37822
O -6.79958 -2.37859 3.03435
O -2.44709 -6.87739 -7.73065
O 3.95683 -0.971943 4.66908
O 8.23034 -0.438724 5.69893
O 7.49295 0.347292 9.3507
O 3.62688 10.2487 -8.44742
O -6.69619 2.54378 7.19333
O -9.85844 -5.9141 1.69476
O 3.50129 5.20604 4.4058
O 8.88794 -7.87517 6.8887
O 3.96778 -6.62261 9.45734
O 0.846661 9.75136 0.630738
O 7.00999 -2.44917 5.01738
O 7.31724 -8.14485 -6.29304
O 7.99219 2.33647 -9.85605
O 4.27467 -3.7458 9.3992
O 4.88799 -0.438492 -4.52142
O -9.98662 0.813422 0.159439
O 5.53005 4.6531 5.74143
O 1.24115 -5.02506 -5.59853
O 6.47101 8.85831 5.57296
O 4.33498 7.8525 -8.98669
O -1.78085 -2.05511 -3.89251
O -3.06246 3.30078 -1.35751
O 5.1136 7.83771 0.528753
O 2.43978 -9.46601 -3.31942
O 7.3057 0.379666 -8.40097
O -9.36632 5.49168 4.39833
O 6.44148 6.89614 -4.30724
O -3.82489 -3.17159 -5.00449
O 0.84854 5.59493 4.72707
O 6.34632 0.771484 -6.19382
O 0.96542 6.10124 0.0888396
O -4.21366 -8.63062 -8.36861
O -8.46506 1.61461 3.35084
O -9.85318 -0.271804 4.06734
O -9.4301 4.13514 -7.04864
O -5.42149 -7.19057 3.44399
O -6.75925 2.39062 1.71134
O 5.28159 -1.06884 8.99546
O 7.93406 -5.35291 7.27131
O 10.3302 -3.33413 -7.13981
O -8.15717 8.11999 -0.0445467
O -0.173078 -3.09456 5.09598
O 5.9072 5.24585 0.546347
O 5.98956 -6.66788 -0.369022
O -9.94874 -3.50751 8.15403
O 2.70587 -1.83362 -4.397
O 8.86409 3.94771 4.12886
O 10.3689 5.52651 -1.4181
O 8.89215 -1.86026 -3.72752
O -2.20862 -7.96355 4.58426
O -7.61609 -0.702873 -4.22374
O -2.79543 -6.24783 -3.6814
O 8.99578 -2.53316 7.00524
O 0.438938 4.75828 9.6924
O 1.31409 5.1776 7.27418
O -6.2036 -4.73279 -0.666768
O 5.55092 -4.16864 -4.77241
O -10.2171 2.74901 -4.91745
O -8.10738 10.1984 -1.77288
O -1.89632 6.00063 4.14832
O -0.255 1.86255 -0.624278
O 4.864 1.54057 8.98524
O -5.99432 -9.3002 -5.60323
O 8.90764 -6.20436 0.418217
O 1.92086 -5.03676 4.09093
O 0.0760848 -7.77282 -7.63141
O 2.04707 4.85042 2.36986
O 10.2315 7.34291 3.51638
O -9.56302 -9.83366 -3.67933
O 0.620848 -2.65036 -6.06204
O -0.35533 -0.770001 0.194631
O -4.2892 9.85635 1.74418
O 2.67283 -9.56274 1.72621
O 9.36528 -4.10277 -4.91573
O -0.718553 6.94946 -4.83406
O -6.33387 0.149404 3.1944
O -0.904113 4.00229 5.78976
O -1.35038 -8.0813 1.89407
O -6.38229 2.83782 -10.0122
O 6.69606 -4.73842 4.08102
O 8.10165 -1.00817 -6.22006
O 7.91182 8.17052 7.63242
O -9.68339 -0.733156 -7.97451
O 3.59123 -0.253129 -2.49538
O 7.39365 -8.21647 0.786699
O 4.0597 -1.57697 -9.13437
O -6.30905 9.29246 5.42669
O -0.420044 -9.51181 8.19583
O 8.98892 -1.36221 -0.310724
O 5.72919 2.49142 1.1173
O -6.52317 4.48091 -3.07637
O 10.3228 2.09113 4.89394
O 0.798305 4.93113 -4.44038
O 2.79546 -7.41469 3.17405
O -2.83094 8.36603 3.41916
O -9.82525 6.47146 -8.14607
O 6.98753 -6.58937 2.3223
O 6.34069 -7.12326 6.33133
O -1.10213 6.75819 8.95331
O -0.925639 10.4477 -1.06358
O -8.87446 -2.08458 6.25427
O 5.33631 6.48502 -1.74083
O -0.706262 -0.395942 -2.15148
O -6.78785 -2.19102 -0.897288
O -5.27279 4.44014 0.68627
O -5.06966 -5.02528 -3.69879
O -7.69444 6.9613 5.77271
O 5.84233 2.75993 -8.80197
O -1.77862 -0.482019 -8.7738
O 3.83761 1.20592 -6.30111
O -9.34294 8.64552 -3.64142
O -10.4237 3.62349 8.90102
O 1.66944 3.73128 -0.0775577
O -2.35554 8.88242 -4.33708
O -2.44069 8.1098 -6.74545
O -6.79446 2.98006 -0.895315
O 9.78351 6.0836 7.97381
O 6.6193 -2.25789 -0.274947
O 2.72364 -9.83432 -0.859071
O -4.32294 6.65385 5.02696
O -6.60483 10.3613 2.94046
O -5.71856 7.48461 7.16037
O 1.81884 7.56071 -4.74434
O -4.21869 6.62751 -0.26935
O -8.08491 1.08892 -9.15127
O 4.43397 -3.80806 -7.19298
O 0.890299 3.14146 -2.51028
O -6.02268 10.3193 -8.50531
O 2.95493 -1.74146 -6.85456
O 7.61193 -6.60571 -4.43945
O -2.43113 -10.0462 3.09767
O 2.24985 -2.95228 5.49077
O -6.50412 9.97951 0.306606
O 4.11996 2.3958 -2.00851
O -5.85713 -0.231719 -2.31983
O -3.75092 -4.19297 -0.144119
O -0.183646 -6.7945 8.02076
O -6.89897 -6.58085 5.44179
O -0.381118 -5.097 -7.4554
O -3.92931 6.26142 2.36243
O 6.60376 2.52793 -1.94208
O -3.51744 7.43479 -9.09649
O 5.85312 9.91815 7.85026
O 3.66994 -5.64906 -5.45572
O 6.16701 -5.83696 -6.55792
O -1.35755 3.97213 -3.39687
O 6.27566 0.541207 7.15705
