591
Atoms. Timestep: 1790001
Si -9.22925 -3.70765 8.84676
O -9.25912 -3.17486 10.4646
H -10.1479 -3.02657 10.7654
Si 1.46587 -7.85392 10.69
O 0.926271 -7.72075 12.2848
H 0.92178 -6.82562 12.603
Si -2.2421 -2.4936 -10.2731
O -2.152 -1.90169 -11.8768
H -1.2685 -1.76635 -12.1987
Si 10.3544 -6.34056 9.86542
O -9.58032 -6.58125 11.173
H -9.03594 -5.84835 11.4357
Si 6.39368 0.742267 -9.16171
O 6.30313 1.28353 -10.7299
H 6.37043 0.619234 -11.4057
Si -1.71084 -5.62003 -10.2606
O -1.7044 -6.13363 -11.9039
H -2.39583 -6.72401 -12.1793
Si 7.21307 -2.34272 -9.73037
O 7.17821 -2.27954 -11.4452
H 7.9052 -2.75874 -11.8251
Si 3.85369 -9.98669 10.4753
O 4.2397 10.1853 11.8808
H 3.57121 10.1989 12.5557
Si -8.84976 6.48814 -8.8958
O -8.90289 6.16595 -10.5603
H -9.66265 5.65237 -10.8083
Si -9.41872 9.62424 -8.61309
O -8.77742 -10.508 -9.90108
H -9.26216 10.4403 -10.7153
Si -4.35871 10.4038 0.843813
Si 5.60069 -9.26446 3.41321
Si 7.2854 -5.24874 6.24396
Si -6.88812 5.63789 -2.05575
Si -10.3735 -1.52958 6.79898
Si -5.15446 -0.233973 -4.45158
Si -5.13 10.2932 5.56979
Si 6.23509 -5.1139 0.446957
Si -4.51495 -5.91665 -1.69836
Si 0.672345 -6.48425 -8.47232
Si -2.39175 -1.42484 3.01268
Si 5.07678 -0.0163352 -4.88597
Si -3.54985 -9.14058 -4.8159
Si -0.379948 7.21036 6.36747
Si 8.93038 -8.77471 8.50477
Si 4.48607 -3.61386 4.16848
Si -9.82004 9.32071 5.36989
Si 5.94807 10.1818 5.95923
Si 8.66184 9.38488 -4.42026
Si 3.67249 0.418454 -7.7357
Si 3.63154 9.12568 7.9348
Si -3.28011 -7.39776 -8.14662
Si 5.93347 9.78431 -7.22719
Si 5.92211 -8.07455 9.18845
Si -1.94468 -5.03958 -3.22999
Si 0.144732 1.49321 -4.03159
Si -2.30305 5.71381 -5.23496
Si 6.6939 -0.124243 7.42822
Si -2.74309 -8.15741 -0.255077
Si 8.61113 -4.51729 -4.10103
Si 6.19601 -9.73409 -4.59682
Si -8.75345 6.39801 5.76828
Si 0.70672 -9.66207 3.94781
Si -4.31391 -0.522332 -1.4178
Si 8.94313 5.1301 1.31188
Si 5.54239 1.73522 0.147723
Si 9.65441 -8.48785 -1.17032
Si 3.77989 -6.78005 -7.60345
Si 7.9233 6.70931 7.25802
Si -2.41503 -10.379 -7.55888
Si -1.18205 -6.12396 -6.07865
Si -0.281149 -8.40597 8.08227
Si 8.26743 2.25349 1.60887
Si -9.77334 3.86854 -7.49423
Si 9.24649 1.3754 7.05945
Si 8.95553 -6.66438 1.06592
Si 1.93995 -2.86417 2.32905
Si 2.97028 -6.25211 -4.53695
Si -0.660821 3.88473 3.86734
Si -3.15246 -8.5541 6.77017
Si 1.26047 2.74375 1.5893
Si 1.20004 9.05234 1.75191
Si 2.73666 -2.55399 -7.86284
Si -8.39264 -9.023 -1.28502
Si 6.46093 -2.96437 8.31049
Si 5.651 8.92433 -0.769353
Si -3.25447 5.95132 5.54666
Si 8.64177 -9.26796 2.88318
Si -6.47724 6.2139 -6.88292
Si 0.985334 -9.82454 -2.53715
Si -8.18736 6.3656 0.599943
Si -6.90974 2.9616 -2.89178
Si 4.19533 -5.67052 -1.73484
Si 8.58974 2.17338 -7.23273
Si -1.54996 -1.27642 5.93317
Si 2.00697 0.0824471 3.11671
Si -6.81769 -8.92583 1.57069
Si 9.93468 4.47886 6.75809
Si 5.24938 3.27229 4.75448
Si 6.69455 -1.29459 4.40397
Si 10.3141 -0.197135 -5.91304
Si -9.95208 -4.79858 2.55679
Si 8.60686 9.77154 -1.5427
Si -0.220725 1.64665 -0.957542
Si 3.57536 0.449451 8.05651
Si -7.26881 -4.38236 6.66667
Si -0.249881 -1.46072 -5.01659
Si -4.71627 -6.01835 5.98225
Si -4.22294 1.48653 -6.94557
Si 1.65755 2.48453 -6.53555
Si 6.0873 5.88792 0.216671
Si 0.509308 -9.5325 -7.78729
Si 1.0716 4.73314 6.03771
Si 3.39978 -9.91676 -7.75893
Si -4.49286 4.38081 -3.36048
Si 10.091 -7.89817 -6.55399
Si -0.449435 -3.73293 -1.05847
Si -1.49702 -1.02703 0.0372696
Si -7.39595 -5.21825 -5.23873
Si 3.2406 -10.5011 -4.50839
Si 2.36462 -3.18503 -4.74827
Si -6.95848 3.11147 -6.96698
Si -0.294652 -2.45106 -7.85783
Si 4.81516 -6.19616 2.82309
Si 6.48866 -0.6159 -1.5274
Si -2.4952 -2.9093 -6.05854
Si -8.23874 -9.51497 -6.46458
Si -9.03074 -0.509066 4.2593
Si 2.56155 5.10323 -2.70479
Si 4.37668 -6.50968 6.9497
Si -7.72581 10.0693 -3.64372
Si -7.93088 0.973456 -4.77528
Si -9.18183 1.32094 0.193284
Si -2.94637 9.45696 3.31433
Si -10.2952 -5.03552 -6.60366
Si 2.5018 -5.31122 9.27079
Si 6.69358 -2.76835 -5.76975
Si -4.47511 -3.61718 2.53668
Si -9.12319 -6.43008 5.0583
Si -2.01542 -8.59538 3.70023
Si 2.41941 -7.13119 4.44992
Si 3.98874 -1.67137 -2.68344
Si 2.35101 -7.91954 -0.352353
Si 7.3976 4.35325 -2.27375
Si -3.39475 6.06764 0.662735
Si -1.4301 2.88117 -6.19978
Si -3.54007 8.50592 -1.25676
Si 4.02508 7.89747 -3.11418
Si -5.91376 7.44679 5.48485
Si 8.32462 2.94811 4.69983
Si -0.443762 8.80997 -1.08672
Si 7.53073 -5.4928 9.3712
Si -1.87657 6.73039 3.04303
Si -4.71859 9.31314 -3.85405
Si 3.55145 4.15684 0.127585
Si 1.29379 -0.419254 5.94985
Si 2.44478 -3.13206 -0.85123
Si 8.81303 10.5021 -7.38174
Si -5.81976 -7.667 -6.58478
Si -5.54267 -3.13712 -0.365127
Si -8.19911 7.15731 -4.23906
Si 7.80784 -2.47444 0.520225
Si -7.83581 -9.29833 4.563
Si 9.39969 -2.50953 -7.68039
Si 3.81869 4.42429 -5.53945
Si -1.95749 -4.38147 5.83665
Si 0.700888 -8.27649 -4.82903
Si 9.86794 -2.89332 -1.73564
Si -4.16278 -1.32584 -8.19654
Si -6.44179 -2.06419 4.5676
Si 9.16098 -0.24818 -3.06209
Si -0.407385 5.92426 -2.54799
Si -1.44984 -7.90655 -3.01495
Si 8.28916 6.29454 -4.54708
Si 4.74841 6.2896 7.59071
Si 9.03588 -3.18097 4.5276
Si 8.74179 9.60747 7.44829
Si 1.65697 6.91793 3.97385
Si 8.3459 -7.49851 -3.87752
Si -4.12566 0.00523892 4.93796
Si -9.71561 5.21101 3.04689
Si -10.159 4.68852 -4.57024
Si 0.291945 -5.53379 7.23812
Si 9.63959 8.8816 2.80676
Si 3.35576 -2.43754 8.93512
Si 6.42833 2.7285 -4.90411
Si -6.09157 1.7794 -0.171215
Si 3.64019 3.45371 7.39925
Si 3.75065 -10.4059 1.12686
Si -5.29281 -2.96804 -5.98326
Si -8.52003 -3.95479 -0.176375
Si -0.265552 -6.42748 0.803769
Si 10.0411 2.69737 -2.09737
Si 10.1431 7.47108 0.0348656
Si 5.27753 -4.22456 -8.17818
Si -6.00034 6.57235 2.44554
Si -5.99846 3.48935 2.56838
Si 4.90526 0.660869 2.95012
Si 2.14708 -3.34009 6.19225
Si -2.43676 3.90646 -1.10875
Si 0.690635 9.94377 6.77688
Si 5.5027 6.92643 -5.65741
Si -7.62048 -6.17445 -2.23439
Si -3.84472 8.01556 -6.63265
Si -3.53085 3.0798 4.51451
Si -4.65205 -6.76301 2.97163
Si 8.98878 -7.66111 5.56053
Si 7.09108 7.72277 4.40066
Si 0.117286 -5.15862 3.63099
Si 4.46007 6.19636 4.36857
Si -8.67221 2.32875 3.25635
Si 9.99449 -0.495428 1.70858
O 9.11674 0.89103 1.58968
O -0.319661 8.63093 7.04315
O -1.48647 -7.46566 0.543335
O -2.36399 -6.72713 -6.97107
O 9.40593 10.4145 2.53853
O -1.86915 8.28189 3.53027
O 3.04197 -9.127 0.513031
O -9.94444 -2.49869 8.03705
O 5.45759 -1.67754 -2.09542
O -6.94095 -3.0274 5.75677
O 10.0225 -7.78357 9.20598
O 0.237309 -7.1727 7.18697
O 6.72216 -3.62266 0.847459
O 9.12739 -8.89086 -7.35728
O -5.36112 5.35822 -2.39167
O 5.92877 6.79616 3.81546
O 3.84908 -8.38961 -7.85864
O -7.8467 -3.91787 8.08718
O -1.03888 -2.10868 -9.25187
O 10.0194 8.14773 1.45542
O -2.42644 -8.42267 5.30516
O 0.892401 -3.83046 3.0899
O 1.39039 1.75622 -5.07683
O 2.5171 -9.13416 10.7252
O 2.24175 3.8615 6.71135
O 7.10081 9.96018 -4.22035
O 3.30245 4.49933 -3.98344
O -4.93625 -4.54687 -0.927259
O -4.48824 0.683926 -5.57561
O -5.47538 -0.872181 5.11302
O -4.12411 -10.2177 -3.82329
O 9.64701 1.26793 -2.76658
O 8.17136 -5.93002 -3.58885
O -5.57073 -3.05308 3.59957
O 5.07582 -5.62824 1.3799
O 8.86671 -5.87199 10.1721
O 5.07832 -7.77014 7.77175
O -2.67413 6.99753 -6.15141
O 6.0456 -10.0699 -6.13566
O 10.2479 -3.87415 -7.60347
O 8.20224 -4.42271 5.07699
O -7.16618 -3.12094 -0.304215
O -1.83248 -1.01754 1.61325
O 3.5818 -2.75985 -3.77505
O -1.10834 -6.37384 -2.61331
O -7.21774 7.17973 1.55661
O -1.26165 -5.14718 7.05959
O 1.901 -10.1488 -8.25298
O -3.47429 -4.99973 5.67399
O 3.67686 -6.57073 -6.00517
O 9.74393 -2.40194 5.77957
O 8.77469 7.79154 -4.51326
O -3.97215 8.47302 -2.77268
O -10.3241 8.78133 3.96868
O -6.26912 9.50886 -3.58495
O -9.31452 8.06224 -8.82303
O 3.03333 6.68864 -2.75998
O 2.50771 1.5206 -7.58043
O 5.61804 -5.65697 6.51117
O 3.31387 8.9747 -4.04792
O 4.57269 3.06991 6.2374
O 7.86954 7.14863 5.70167
O -5.91188 -5.20622 6.67677
O 6.63155 -0.909269 -9.21954
O -4.66682 6.3998 1.57296
O -2.60686 -9.82971 -5.96315
O -1.87849 6.60714 6.1489
O -1.37539 6.14226 -3.95457
O -5.56686 3.24381 -3.81168
O 8.15247 2.63008 3.17361
O -3.60934 -0.436203 3.45859
O -3.82708 -7.05812 -0.691741
O 9.91661 9.67362 6.33287
O -8.57418 10.2105 -7.34331
O 2.64819 9.4003 1.18787
O -9.76945 -3.35426 -1.03312
O 2.1436 -3.15255 0.719355
O 7.9744 -2.50324 -6.7815
O 9.90358 -5.6128 1.82746
O 7.41924 -3.55151 -4.55354
O 10.4607 -6.49989 -7.20523
O 9.15497 -8.06596 -2.65172
O 6.44995 -3.6169 -9.13554
O -3.57111 9.32686 1.8302
O 5.14835 7.22704 -4.12237
O -3.04264 -1.68648 -7.00737
O 2.60091 3.77638 -6.30998
O -8.81913 -4.98725 -5.99892
O 0.949859 -5.17405 8.65702
O 5.63713 -5.43072 -1.07145
O 9.513 1.09592 -6.42159
O 2.22925 9.39375 7.13188
O -3.7469 5.10124 -4.57386
O -7.40289 6.39482 -8.21301
O -3.08284 -8.997 -8.26114
O -8.98318 5.42774 1.62916
O 3.61298 -0.0597502 3.45978
O -7.67794 -1.35532 3.80939
O 7.75612 1.05234 7.65148
O -1.62695 -5.10287 -4.8506
O -10.4333 3.69502 -3.32152
O 0.238284 3.35173 2.64427
O 4.60407 5.30692 0.559712
O -4.61993 3.51927 3.37818
O 6.82711 3.44089 5.09424
O 3.44285 -5.79171 8.09641
O 10.2403 -1.31707 -7.05586
O 2.19339 -4.82743 -4.64964
O -10.0229 -5.13239 9.02313
O -4.96179 0.623374 -0.492387
O -2.69259 -6.59379 -9.39734
O -9.72265 5.29996 -8.23812
O -0.45421 -5.18814 -0.228528
O 3.04777 -0.978255 -8.13812
O -6.63166 -6.54311 -5.80443
O 3.34909 -3.19487 3.0633
O -2.80593 -0.722279 -0.854752
O -8.36944 -5.39095 6.03774
O -1.45331 -3.88226 -2.28188
O 8.67503 -9.7425 -0.906325
O -1.29057 -3.48948 -7.09745
O -9.32207 6.07761 -4.38228
O 3.54462 2.0949 8.32816
O -1.44487 -1.16161 4.26599
O -5.15551 -6.53639 4.51162
O 3.98615 -6.01093 -3.30784
O -1.68785 2.52503 -0.878632
O -4.83887 -7.12687 -7.72166
O -5.07337 -1.9023 -1.31067
O 0.215646 8.92628 0.459113
O -6.28692 2.72404 -1.41613
O 6.27925 -6.54417 9.66317
O 10.3799 -6.81616 5.4788
O 7.64027 2.74048 -6.02332
O 9.76681 5.48107 2.57671
O 3.34214 -6.95486 5.79391
O 5.08625 0.193082 7.64467
O 0.272123 1.75108 -2.46573
O 8.91095 5.51917 7.44359
O -8.3227 -7.83572 4.95987
O -0.118835 -1.45081 -6.6294
O 0.29623 -8.09049 -8.50615
O 1.62919 -1.94975 5.54237
O 7.97827 -2.16322 3.93655
O 1.08938 -6.24157 4.27816
O 4.95478 0.957668 -8.48327
O -3.99938 1.58539 4.97823
O 6.96463 6.34384 -5.47622
O 3.42427 -6.93245 -0.958141
O 1.72916 5.44227 4.67808
O -5.48958 2.45419 -7.38292
O 5.95599 7.4713 -0.0574139
O 8.74494 -2.32607 -9.16728
O 7.04083 -1.23663 -0.167588
O 9.2501 4.12288 5.3075
O -4.48095 9.52521 -0.459968
O 0.397801 5.91182 6.94965
O 4.67527 -9.84223 -4.08317
O 4.82675 9.6916 6.98181
O 1.86577 -10.0386 -3.83708
O 1.04771 -4.45129 6.36577
O -2.6937 -8.1134 -3.94581
O 0.383194 10.4336 5.28101
O 6.99494 -3.97532 9.43119
O 7.36137 10.1276 6.76988
O -6.49122 4.63425 -6.53956
O -0.896323 -2.4516 -0.314805
O -5.87992 7.38079 3.84953
O -9.18935 7.94913 6.08305
O -7.62801 4.38404 -2.79624
O 1.03584 -3.52927 -1.56122
O 2.9525 -1.80392 -1.50591
O -0.425101 -8.57813 3.59041
O 3.44995 -4.34975 -1.31876
O -9.56948 4.053 -5.90252
O 10.1976 -3.7555 3.50242
O -5.13194 -1.74327 -4.99155
O -7.25297 5.69139 -0.527866
O -4.24461 0.307267 -8.07743
O 3.25492 -0.777126 9.13939
O 9.36167 -7.72326 -5.16372
O 9.26167 9.86967 -3.06454
O 9.51139 -3.73085 -3.04828
O 2.93657 4.44798 -1.30166
O -4.58182 6.7408 5.99431
O -9.94077 2.23046 -0.864984
O 9.73855 2.92529 7.37922
O 4.15998 0.276805 -6.18763
O -3.12482 6.2682 3.89895
O 8.95747 -8.01405 1.9563
O 6.83888 -0.562753 5.85964
O 9.51104 -0.660342 -4.59804
O -8.85026 1.09433 4.25615
O 0.38114 9.90111 -1.97684
O -1.84502 -2.81937 6.10158
O -7.18809 6.47214 5.89534
O 9.97561 -0.0838686 7.21388
O 0.589684 7.39611 5.05874
O 4.51337 6.30395 5.97175
O 0.2201 -8.03735 9.6247
O 2.30787 -6.42027 -8.31817
O 0.053964 2.66987 -6.86489
O 5.15884 -4.98295 3.79882
O -0.276545 7.30063 -1.77471
O -3.00641 -0.632322 6.10265
O -7.49167 2.01556 -5.9105
O 1.13394 -7.1189 0.435989
O 5.66977 8.32225 -6.55219
O 7.93022 5.64501 -3.09969
O -4.72735 -8.40831 -5.63745
O -7.93754 -10.029 -4.92263
O 8.97324 -8.47463 6.96763
O 7.99196 -5.6517 7.78167
O -5.88724 8.97402 5.92072
O 7.05534 -9.63348 2.7811
O 3.30543 -6.58432 3.2343
O -9.91661 -9.03781 -1.06218
O 2.33874 -6.54958 10.2492
O 6.36474 6.41344 7.73058
O -7.22293 6.91003 -5.56418
O -4.96911 -3.01006 1.06974
O -4.09453 9.72818 4.43241
O -6.4668 -3.97722 -5.54476
O 0.102912 -5.95814 -7.02744
O -8.80653 -10.4562 5.13493
O 7.33197 5.54685 1.19766
O 3.24154 7.16315 3.92729
O 1.93806 -8.72156 4.36007
O 8.64131 3.37918 -1.70942
O -8.04715 -5.332 -0.948711
O 5.68902 -3.7292 -6.70842
O 7.65543 -0.449119 -2.63405
O -9.17799 -5.72906 3.60975
O -0.252872 -0.0425248 -4.30887
O -5.7581 -7.72252 2.13748
O 4.58932 8.75204 -1.93399
O 0.893118 10.3134 2.76488
O -4.4784 -0.157454 -2.96765
O -5.96242 -6.43035 -2.22948
O 9.9217 -1.37003 -2.1752
O -3.36168 4.31831 5.50333
O -1.06629 2.40276 -4.68466
O 9.15796 -10.4095 8.65948
O -5.74538 -10.1307 1.3535
O 8.25342 8.28368 3.43807
O 4.38466 -9.94088 2.54766
O -2.29301 -10.0329 3.30738
O 4.92281 -5.79987 -8.14284
O -9.2608 -1.07802 5.69801
O 1.9794 -7.47134 -4.42139
O 9.62408 -7.16479 -0.306057
O -6.47682 5.01191 2.57633
O -9.34276 7.09406 -0.299634
O -9.21583 0.181835 -5.36654
O -0.295191 -0.47794 6.51731
O -0.843107 -10.3658 -7.85715
O 10.0013 9.98178 -8.38771
O -5.39485 -2.22949 -7.52472
O 5.90924 -1.40568 -5.35688
O -7.66466 -5.43202 -3.68044
O 5.63131 -9.63055 4.9461
O -3.56661 -1.88174 -9.55451
O -0.545756 -7.22068 -5.0841
O 8.96092 1.67161 5.45133
O 1.18268 7.67004 2.58653
O 7.06838 -8.43206 -4.21038
O 5.43852 -2.37452 4.32378
O -6.29631 -9.75899 4.93448
O -6.67123 0.0946699 -4.39969
O -0.39978 -5.79751 2.24954
O 4.54275 2.89722 -0.0728235
O 6.20987 8.96457 4.97823
O 5.85542 0.764238 -1.10583
O -9.05038 1.95105 1.75192
O 2.52427 3.74855 1.26146
O -4.47094 -5.24496 2.40888
O 6.01117 1.2397 -4.64571
O -2.20168 -4.10975 -10.2636
O -4.10211 -7.27531 6.7919
O -3.04284 -2.93093 2.8305
O -9.10531 6.03566 4.24329
O -1.06198 -4.82631 4.62985
O -9.9489 -0.0339147 0.51871
O 1.65619 -8.8615 -1.49869
O 7.42015 -8.62449 8.96487
O -7.44425 6.81595 -2.91387
O 9.03487 -1.73442 1.30589
O -7.57849 -8.83411 0.109498
O -7.95414 -10.2469 -2.27121
O -1.65513 -2.30593 -4.87201
O -8.62897 8.71497 -4.18335
O 4.99161 2.08449 3.73492
O 7.6851 -6.75461 5.58485
O -5.8759 2.68065 1.14385
O 9.42359 5.30583 -5.0638
O -0.225178 -5.77102 -9.53938
O 4.60027 4.60021 4.20054
O -2.77688 2.1808 -6.74489
O 6.47763 5.03885 -1.13881
O 1.23253 -2.92364 -8.24127
O -10.2273 -0.745207 3.16696
O 3.9311 7.54709 8.1766
O -7.01293 -8.69049 -7.01764
O -7.78296 -9.28387 2.86062
O 0.47236 -9.75769 7.64226
O 4.71075 10.1681 -8.1662
O 4.9624 -2.6942 8.61072
O 2.50355 -2.68021 7.60491
O -1.9737 9.04933 -1.06949
O 6.24378 -0.197401 3.32918
O 7.07819 9.38574 -1.31102
O -2.05182 3.06831 3.86503
O -3.81509 -3.71601 -5.90534
O 4.92677 10.0071 0.157794
O 6.89463 -3.65366 6.92584
O -9.00129 -4.20705 1.34983
O -9.56281 3.66557 3.45147
O -4.41702 8.7774 -5.3364
O 7.44318 9.78378 -7.7474
O 7.55096 -6.01743 0.758963
O 2.45769 0.114 6.91415
O 4.3394 5.92198 -5.98123
O -0.834892 5.49518 3.46507
O -3.47181 -5.48185 -2.80044
O 9.79094 3.17695 -7.76502
O 4.13019 -0.396067 -3.67397
O 0.668904 2.50245 0.117701
O 3.24937 -10.262 -6.13686
O 1.78354 1.33305 2.15814
O 0.982074 -2.38691 -4.45057
O 9.54014 6.08102 0.144633
O -1.32813 4.98668 -1.5624
O -9.53781 -8.62058 -6.35764
O -0.0779 -8.83519 -3.3741
O 3.4545 -3.79837 5.39041
O -1.89176 -8.57108 7.7945
O -8.28976 3.21404 -7.83366
O 4.87007 0.838045 1.39483
O 9.00354 -8.67987 4.31352
O -1.94226 -8.61969 -1.63872
O 8.46198 8.12279 7.85819
O -9.6447 5.26741 6.56576
O -3.40154 3.77796 -2.39255
O 5.01662 -8.94807 10.1312
O 6.83587 2.19201 0.915869
O 9.09551 10.0661 -5.79853
O 9.04263 3.55414 1.10346
O -3.19479 9.22496 -7.53826
O 5.12205 3.52838 -5.52689
O -1.68565 4.4461 -6.05391
O 8.67714 -3.16048 -0.65984
O -5.0958 7.09351 -7.03759
O 0.914308 5.15051 -2.86785
O 9.343 8.54027 -0.912546
O -7.61054 1.1406 -0.112868
O 3.78045 -3.58118 -8.47229
O 3.00501 -3.80685 9.68664
O -4.13738 -9.88662 6.53011
O 1.68496 -1.27397 2.30958
O 3.62842 10.0778 9.20613
O 5.48195 -7.64958 3.20525
O 2.74408 -2.77332 -6.23483
O -7.08007 2.64701 3.41422
O 0.59411 -9.06072 -6.19722
O 4.25158 4.82856 8.06759
O -0.445483 0.21357 -0.363113
O -3.59856 7.06925 -0.588113
O -3.43923 -9.35613 0.505105
O 1.32861 0.292894 4.49421
O -3.22384 4.56613 0.156686
O -8.23216 -7.63387 -2.17087
O -3.2286 -7.64261 3.04861
O -8.02387 1.88375 -3.36151
O 9.61096 -4.75186 -5.39739
O 6.78456 3.42644 -3.44696
O -0.059356 3.81447 5.34563
O -2.20341 6.58885 1.52098
O 7.06908 -1.43804 8.28676
O 7.58425 1.4552 -8.27684
