585
Atoms. Timestep: 1790001
Si -5.17185 7.22617 10.6908
O -4.94125 7.27036 12.3311
H -4.02905 7.28374 12.5961
Si 9.86496 -9.4919 -9.45777
O 9.48011 -8.27891 -10.5727
H 8.66418 -8.39409 -11.0454
Si -3.7002 -8.92749 -10.269
O -3.21043 -9.10842 -11.9339
H -2.76427 -9.91961 -12.1469
Si -8.29927 6.511 10.3559
O -8.78614 6.1405 11.9511
H -9.7192 6.20093 12.1192
Si -8.86695 9.41137 -10.0051
O -8.6085 8.67762 -11.5293
H -9.15829 9.05744 -12.2045
Si -3.72 -5.69773 -10.3242
O -4.08818 -5.47951 -11.9639
H -3.88582 -6.19364 -12.5569
Si -10.4336 4.81114 -8.12284
Si -9.00129 6.70771 -8.52941
Si -5.02762 6.68505 2.27744
Si -5.97578 5.89913 -7.73718
Si 2.94241 -9.64347 6.53413
Si 8.94007 4.68551 7.644
Si 5.492 9.71663 -3.17481
Si -6.73796 5.23022 0.132211
Si 0.720416 6.61777 -5.64888
Si -8.88364 3.99826 -3.70764
Si -5.96677 7.84749 4.94904
Si 5.84151 -7.16492 -1.12802
Si 4.6301 7.77872 -5.15096
Si -1.06659 -2.39012 8.33252
Si -8.81353 2.60805 -6.64852
Si 7.19539 7.67461 -7.12276
Si -4.37221 -9.04136 0.0540845
Si 3.88622 8.78684 0.428328
Si 2.6864 -8.18062 3.6434
Si -6.23637 -10.1344 -8.92774
Si 2.06714 -5.51722 0.907118
Si 0.738031 8.82398 -3.41145
Si 5.47442 2.96723 -6.42687
Si 1.9117 8.63394 7.88778
Si 0.530797 4.37817 0.0199836
Si -4.2207 4.36869 4.28881
Si -0.612479 9.09516 0.863689
Si -3.27758 -3.42623 4.36774
Si 5.17781 -0.000741613 -6.8865
Si -0.311522 7.05875 6.21349
Si -8.49653 -2.18215 -5.44477
Si -5.00794 -1.83962 -0.406397
Si 3.7972 -5.4226 3.48945
Si -9.05063 -4.93461 -3.98655
Si -8.48298 -6.11817 -0.149736
Si 10.0374 7.31081 8.84234
Si -7.24254 4.13221 8.52464
Si 1.69262 1.70769 3.81426
Si 7.88161 -3.21726 -5.25893
Si 1.56734 -8.68863 -5.53995
Si -7.21886 1.677 -2.59872
Si -1.88498 10.1519 -8.48684
Si -10.4585 9.46568 6.70272
Si 5.83915 5.31154 3.1386
Si 3.16436 -2.11348 -7.12433
Si -7.606 10.265 6.15538
Si -4.40598 9.59917 -1.92307
Si -0.265695 0.417291 7.77711
Si -1.93667 -5.94591 5.01525
Si -7.64845 -2.10065 -8.41609
Si -10.0743 -6.30673 7.2528
Si 3.81244 4.23229 7.0047
Si -1.68429 0.432229 -1.5237
Si 4.43449 -0.270872 -3.89354
Si -0.00934554 1.78024 -3.86233
Si -7.92229 1.43548 7.45939
Si 9.78666 -3.33195 6.91493
Si 3.0212 2.40154 -0.166573
Si 3.34655 4.9335 -5.17672
Si -0.63384 10.304 8.64216
Si -1.50843 -4.32962 -8.69099
Si 8.01282 10.4906 -4.72299
Si 2.62095 1.33859 6.73862
Si 8.16334 0.760488 5.31897
Si -0.352343 -2.41906 -1.58911
Si 7.32485 6.61982 9.09243
Si 7.6198 1.98323 -4.28568
Si 0.152285 -5.15926 7.36682
Si -6.20896 -4.75525 -8.49177
Si -5.74878 -2.92021 2.46934
Si 0.493464 -8.20488 7.71824
Si -4.85236 2.97516 -0.984036
Si -6.91059 -5.83912 2.46655
Si -1.58254 -4.87404 -3.20053
Si 4.42036 6.82931 8.35925
Si -7.73911 -5.89457 5.43014
Si -3.21355 7.47341 -0.113455
Si 10.44 7.68023 4.0937
Si -3.58827 9.59027 9.12037
Si 3.26892 8.69238 3.4664
Si 6.7397 3.61693 5.69728
Si 10.4336 2.49134 6.36056
Si 5.82361 3.64884 0.519539
Si -3.00386 -1.8776 -7.33294
Si -3.67966 1.42163 3.72481
Si 3.01718 5.92887 4.43641
Si -4.54136 -3.93782 -2.76794
Si 6.0513 -9.73623 6.35022
Si -1.17064 -0.669262 -5.25184
Si -7.06173 5.02847 5.57346
Si 4.07776 -4.938 -2.54192
Si -9.42689 -3.40228 -1.27669
Si 5.31121 -8.78791 -6.83586
Si -3.71894 0.312062 -3.59499
Si 7.3184 5.62616 -1.41952
Si -1.29462 4.31655 5.49013
Si 6.89455 8.68269 -0.569258
Si 8.55714 -2.83323 -2.12008
Si 4.32026 -9.20988 0.926511
Si -9.49576 -9.31556 -3.91255
Si -9.31244 9.0261 1.61867
Si 8.34722 -5.655 -0.735717
Si -1.39164 4.60621 -4.41533
Si 8.11025 5.0232 -4.21541
Si -10.2754 -8.1514 -6.68433
Si -0.0269469 -7.02933 2.6891
Si 0.798084 8.32181 -8.43169
Si -9.90535 -0.432268 -7.2331
Si -8.0459 -1.41903 4.05717
Si 6.44539 8.23202 6.68289
Si 8.21491 -0.234094 -6.46249
Si -2.42222 2.54996 7.8126
Si -5.76933 2.94994 -7.57181
Si -4.17106 4.97802 8.75412
Si -5.5503 -0.0829969 -7.87232
Si -8.90815 0.603071 2.00129
Si 9.16854 -0.362243 2.56329
Si 2.10825 -3.65156 5.51729
Si -8.38416 -9.504 3.33529
Si 10.3634 4.87497 -1.23397
Si 10.2831 -3.07488 3.77225
Si 2.61105 -0.313051 1.48532
Si 2.75298 -9.77431 -2.84689
Si -5.4505 -9.19702 8.03618
Si -5.77025 8.37551 -4.47487
Si 2.49571 -2.52437 -2.80774
Si -8.76185 8.55826 -4.0011
Si -4.91664 0.936119 6.50976
Si 2.98279 9.92916 -6.84829
Si -0.300053 -2.59027 3.79315
Si 0.729862 4.45142 3.11934
Si -5.55345 -8.31814 2.8067
Si 2.9815 2.33934 -3.34087
Si -1.59417 -8.87572 -6.01505
Si 6.513 -3.8691 3.56651
Si -3.46825 0.709242 0.679756
Si 1.49075 7.36344 -0.696642
Si -9.79036 4.63495 4.19813
Si -1.84062 -10.3064 -3.44109
Si -8.59178 7.33712 -0.971264
Si 7.12372 -2.1875 6.23886
Si -3.93626 -2.12845 7.12275
Si 9.37406 7.74629 -4.92668
Si 7.61168 -10.4928 -7.82743
Si 1.04048 -2.71433 -5.3394
Si -4.1222 3.21366 -4.89757
Si -7.22358 -7.53979 -7.32293
Si -2.23441 4.7284 -1.47601
Si 9.14388 -5.34253 2.23316
Si -6.32828 -0.243756 -4.70659
Si -2.28579 -5.87925 -5.97705
Si -4.48016 8.58592 -7.41711
Si 10.2695 -7.97219 -1.28565
Si 8.96538 -8.73934 6.31081
Si -5.66243 -6.71299 -1.72174
Si 7.34491 7.97525 3.63587
Si 9.56993 -8.42199 3.19496
Si 6.97231 -7.86156 -4.0904
Si -9.33755 3.65228 1.24715
Si -6.98872 -7.33471 -4.32966
Si 4.89574 -4.22868 -5.49971
Si 7.51925 4.84082 -7.34024
Si -0.754228 -7.57136 -2.1142
Si -1.22263 -8.89533 0.605753
Si -3.69503 -8.53181 5.48582
Si 0.833946 -2.80021 0.919885
Si -7.14424 -6.72349 8.16132
Si 4.24387 -1.32073 6.06882
Si 0.186048 9.09069 3.84066
Si 5.74775 -10.4132 3.4401
Si -6.48478 -3.9284 7.46044
Si 1.44755 -4.28149 -7.9601
Si 9.08346 -10.3128 0.697959
Si 3.31486 -6.4974 -6.99857
Si 2.17805 -7.04617 -1.9454
Si -3.43522 7.49771 6.78913
Si 6.97416 -0.109182 -2.01445
Si -6.24592 5.48852 -4.50742
Si -0.935953 0.373864 4.72211
Si 9.20112 -5.97138 -5.11385
Si -7.8726 -0.684779 -0.729484
Si 5.09369 -1.0722 2.98821
Si 6.76905 0.710725 1.00721
Si -8.54099 -1.57428 7.27508
Si -1.02674 -9.80279 5.68485
Si -4.75122 -4.04335 -5.81038
O -9.73348 5.55568 -9.39117
O 3.30481 -5.44589 1.95018
O 5.75012 6.86411 9.32184
O -1.54336 -9.70121 -7.33918
O 1.90444 5.5473 -5.59045
O -8.22821 4.69522 4.53601
O 4.31652 3.20673 0.274427
O -0.704967 9.57333 -3.43787
O 4.20434 -1.05039 -7.62265
O 2.60749 -8.6231 -1.7068
O -3.10441 10.2071 -2.58179
O -8.01686 4.37466 0.649909
O 9.87891 5.95967 7.94428
O -5.29691 -2.63327 0.928214
O 7.73607 -4.54139 2.84437
O 1.93079 -1.61691 -6.12906
O 4.88522 -0.475078 -5.34875
O 1.73378 9.18376 3.55092
O -1.29462 -8.95551 -2.68203
O 7.77148 5.07114 8.7358
O 7.12397 5.36992 -3.02723
O 1.28746 0.98408 7.59391
O 10.2993 9.68058 1.08609
O 6.51621 -9.32576 -7.71823
O 0.287111 1.34795 4.28487
O -0.941538 -8.14744 2.04309
O 0.505355 -2.92551 2.47373
O -7.75823 5.16067 -3.95697
O 10.0513 -3.09875 -1.65112
O 8.99027 4.61194 -7.96078
O 8.74901 -4.47879 -5.66495
O -3.19307 -4.94314 4.86754
O -4.90951 7.06774 -7.93489
O -1.37355 -5.33798 -4.70422
O -5.74431 -4.21909 -7.06471
O 0.783338 9.4152 8.81658
O -3.03405 -4.15581 -3.17626
O -0.552744 -10.3504 0.561274
O -7.66097 -2.30043 -6.80058
O 4.80406 -0.905432 4.56193
O -7.50476 -6.04118 3.90129
O -9.20773 10.0963 -3.69408
O 0.355116 4.65883 1.62044
O -1.98361 9.87576 9.36144
O -10.0069 -2.28532 7.33667
O -7.24697 -3.55456 -8.95162
O 10.0008 8.56075 7.89138
O -7.37972 8.5796 -4.72261
O 2.80999 -4.47644 4.37593
O 8.79571 5.02323 -1.17594
O -2.20816 -9.85138 -4.87401
O 2.47 9.86938 7.00447
O 7.27307 7.16802 -0.986832
O 6.83266 9.46457 3.16133
O 10.3476 -8.95281 -8.00764
O -4.4333 1.92412 0.195635
O -2.4761 -0.521482 -4.32308
O 2.53819 -3.15894 -8.22869
O -5.0421 -0.509269 -3.81984
O 6.43916 0.239645 -0.533382
O -4.37017 5.93086 10.0265
O -1.69814 -6.32362 -2.45758
O -0.311225 10.4382 4.55594
O -8.14652 -1.31272 5.68981
O 8.27462 -2.82585 7.16833
O -5.56813 1.50874 -8.29655
O -1.07497 -1.04603 -1.67682
O 4.33232 3.96358 -6.04051
O -4.30739 8.50319 10.1402
O 3.53717 8.41196 1.90269
O 0.098843 -4.26813 -8.8149
O -3.70237 -7.33656 -9.97419
O -6.09706 5.92264 1.45517
O 6.05311 -9.58243 4.73905
O -2.85517 4.575 5.20659
O -0.0967247 7.86611 4.82131
O -1.82628 7.38486 6.66113
O 3.13335 -2.49368 6.01725
O 0.393762 -6.55505 8.07063
O -5.21621 -3.86682 -4.30666
O -10.0682 4.50995 -2.72153
O 1.61263 3.15696 0.0577902
O 0.676494 -7.05111 -2.50764
O -6.68792 9.15117 5.42926
O -9.07996 1.9875 6.48255
O -10.0828 7.92321 -4.7591
O 3.03794 -6.11142 -2.89019
O 9.39218 -1.86027 3.05632
O 2.49326 1.58599 5.18922
O -5.22052 4.20799 -4.17465
O 1.66461 5.66476 3.63447
O 7.64634 -0.701666 5.79533
O -6.41192 -1.12407 -0.728917
O -5.16186 -9.04936 1.48599
O -5.61801 4.40993 -8.26429
O 8.08204 -1.72303 -5.84926
O 7.40984 7.41189 7.70752
O 1.71878 3.20506 3.21329
O 0.959304 7.90353 -4.63969
O -9.88897 4.30191 2.61511
O -5.81581 2.15411 -1.97673
O 3.57155 -0.0192635 6.75459
O -1.80602 -5.29209 -7.38717
O -8.96934 -3.65924 -4.95039
O -5.14905 -9.52384 -9.91316
O -7.94605 5.15037 9.53114
O -9.06192 -4.56615 -0.189331
O 8.4104 3.41811 -4.05149
O 3.19843 2.78388 7.2464
O 3.02354 0.908817 0.504005
O 9.2889 -6.67869 -1.49938
O 8.1584 -2.9271 -3.65999
O -7.06082 -4.47919 5.97398
O -0.714193 -1.01376 4.01838
O -0.494307 -3.78921 8.11782
O -7.28423 2.91721 -6.98711
O -9.58252 -7.23579 -0.554447
O 9.04286 -5.26132 0.66331
O 4.87134 1.57716 -6.99665
O 6.36266 9.79463 6.85235
O 0.750633 -2.8969 4.99158
O -8.78127 -1.96814 -1.05364
O 0.85817 7.84016 -2.1112
O -0.622475 8.92357 2.44943
O -4.8814 8.56587 -5.88363
O 7.40991 -8.85236 6.75349
O 3.69045 8.75946 -5.97875
O 4.30029 -10.241 -3.00053
O -9.2639 -6.04737 5.88798
O 10.0308 -3.34176 5.32535
O -0.875718 4.22106 -0.672656
O -9.81297 -8.75207 3.24985
O 6.39157 -3.6976 -5.68709
O -9.67198 -1.23983 -5.87769
O 5.61042 -1.9622 6.7555
O 3.68591 10.3953 0.298212
O -4.01854 2.92869 3.62677
O 1.26282 -2.16599 -1.84533
O -4.11186 8.24997 -1.15545
O 8.92538 7.72205 3.40071
O -7.37102 6.43655 -8.34579
O -3.15605 0.45722 -2.08639
O -3.38775 -2.33196 5.60677
O -1.8912 8.40655 0.198054
O -5.35068 9.30464 -3.24034
O -9.11275 -1.33356 -8.39453
O -0.242448 -1.91887 -4.86744
O 9.95383 3.43163 7.61344
O 7.04679 -3.24455 4.95833
O -8.13879 -0.199218 0.879378
O -2.67576 6.06892 -0.6395
O -3.88782 6.14177 7.62217
O -6.75067 7.26533 10.355
O 8.97034 -9.44505 2.11466
O 5.48406 -9.69963 1.973
O 7.13503 2.03327 5.50176
O -5.0208 -5.24855 -2.0034
O -0.979271 -5.39998 6.19107
O 6.98755 7.97103 5.21794
O -9.58148 8.06664 2.96678
O 5.36675 3.92823 6.55503
O -1.42713 3.12408 6.62785
O -3.60177 0.677517 2.31838
O -0.837053 1.37649 -2.55869
O -7.44374 -2.68551 7.75132
O 6.41485 10.172 -4.41298
O 4.81403 -4.51328 -3.94168
O -7.99242 0.558014 -1.68474
O -10.3099 3.85635 -0.0353692
O -10.1048 -8.96647 -5.34717
O -3.76331 1.77609 -4.23576
O 5.80191 0.136496 2.23222
O 8.32054 0.910178 -5.27279
O -4.38151 -3.08001 3.34926
O -6.18678 5.78053 -6.12827
O -2.23523 -2.88274 -8.33966
O -9.57314 7.15199 9.70768
O -0.64734 -7.91266 -0.535992
O 9.88196 -7.57529 7.02177
O 0.879947 -3.79281 -6.4887
O 10.4844 3.4609 5.02365
O -5.50579 -6.73955 2.46033
O -9.85151 6.11329 -7.2653
O 1.87523 -10.0791 -6.21025
O 6.32846 2.4302 -5.16907
O 9.00111 -8.55451 4.69692
O -7.88828 -5.97166 -4.34948
O -6.59549 -5.23883 8.38741
O -0.476725 9.37114 -8.68818
O -8.6617 8.34768 0.352009
O -8.49616 10.2355 2.30711
O -7.55816 4.60778 7.02422
O -8.12944 2.97182 -2.77236
O 7.03083 9.00324 -7.83145
O -1.37974 1.4068 8.43851
O 3.2607 7.47241 4.56604
O -6.74229 -1.99513 3.30506
O -4.60147 -2.68522 -1.71941
O -9.23719 8.19631 -9.03145
O -0.929423 10.2915 7.05234
O -8.20412 -9.9877 4.91611
O 0.814485 -6.15873 1.63189
O 7.4172 1.17632 -2.89994
O 2.05995 0.516833 2.80557
O 6.67438 2.26675 0.881364
O -2.57052 -9.66885 5.36275
O -6.82925 -6.15867 -8.05791
O -5.63175 4.34819 8.52835
O 10.2343 -4.48594 3.00136
O -0.0435775 -8.55069 -5.5104
O -8.05918 -8.47092 -3.91597
O -4.46322 7.65804 5.65613
O -7.89662 -6.3241 1.31465
O -9.13118 3.19182 -5.16292
O 6.47141 3.66565 -7.46118
O -4.01604 7.31781 1.2276
O -2.69321 -7.26285 5.51803
O 3.1267 2.30329 -1.77384
O 3.25949 -8.60026 2.15255
O 9.55323 -0.186613 -7.31586
O 9.40218 1.23542 6.2074
O 7.04962 6.27844 -7.91517
O -0.727567 -3.72524 -2.43283
O 3.8022 -1.19278 2.075
O -0.779581 -0.00732695 6.27877
O -2.23663 -7.46837 -5.97647
O -1.02286 -6.19378 3.66656
O -8.96772 -4.26194 -2.56293
O -8.7762 -6.65191 8.19117
O 3.18992 7.86574 8.56963
O 2.71766 -9.19038 4.95163
O 8.16917 0.00488248 1.40228
O -4.75783 2.88161 -6.33719
O 8.23907 -10.3801 -6.28164
O -4.27318 5.5876 3.22748
O 2.21651 -5.675 -7.9696
O -0.483385 3.22221 -4.29218
O -0.548405 5.78558 -5.13978
O -5.01253 -3.27462 7.42237
O 7.91721 -6.64064 -4.40354
O 6.7761 -0.0550785 -7.06961
O 8.73957 7.71889 -6.40516
O -6.75479 -8.84996 -8.09512
O 5.69242 -0.514629 -2.91586
O 3.62379 -6.91704 4.04675
O -6.41631 1.2897 6.81265
O -5.5332 9.67006 -8.13547
O -1.80872 -1.05014 -6.62263
O -8.36698 0.0347637 3.41883
O -2.62966 -9.88528 -9.56637
O 4.39036 9.78252 3.8525
O -3.02317 3.78124 8.69021
O 0.622603 8.18608 0.427659
O 9.19796 -6.91717 2.7096
O 5.91443 -8.18031 -5.36878
O 5.07475 -5.7978 -1.54704
O 3.88156 -3.08649 -6.07804
O 2.29331 -8.89664 -4.0936
O -1.75732 -3.28926 3.87173
O 10.1764 -4.86097 7.45175
O 9.03209 6.34347 -4.22355
O 6.07454 7.64574 -5.87969
O -3.70661 8.79219 7.7334
O -4.55804 -0.569522 7.11914
O 7.98733 4.25551 6.43211
O 6.50005 4.46299 4.32473
O 2.2569 -6.29661 -0.475423
O 4.26547 -10.0178 -6.8843
O 3.93028 5.36551 8.16507
O 8.64277 7.28102 9.78095
O 7.91296 9.70021 0.146889
O 3.02915 7.87689 -0.561971
O 4.06971 1.31928 -3.82003
O -5.96892 -0.0304999 -6.26228
O -7.18098 -6.36537 -1.08181
O 6.22976 -7.8042 -2.58779
O -4.50109 -8.56613 6.94273
O -2.81922 -9.10613 0.379895
O -9.09707 1.03531 -6.99246
O -2.23094 1.22196 4.42663
O 5.12272 7.44913 7.0555
O 3.0466 3.83399 -3.93016
O -5.65791 7.67496 3.38085
O -6.50444 -4.30137 2.30261
O -4.07765 -0.804326 -7.86362
O 1.49551 -1.32223 0.917781
O -0.201881 -9.16712 8.74499
O -5.87598 -7.32778 -3.22218
O 5.46832 8.5762 0.290837
O 4.19061 -5.46732 -6.17682
O 3.27 -1.18659 -3.3537
O -9.281 -2.37096 3.70845
O -9.70556 3.4613 -7.69405
O -0.297948 -8.45622 6.34063
O 3.45448 -3.54301 -2.11017
O 10.447 8.67228 5.3095
O 4.01301 6.31926 -5.0256
O -2.58314 -2.2673 8.06418
O -1.84791 5.07056 -2.9649
O -7.10398 -8.65221 3.02855
O 1.58752 -4.59951 6.72415
O 4.40307 -7.55606 -7.49439
O -2.99706 9.09663 -7.88601
O 5.99012 4.44944 1.82804
O -0.338106 -1.05691 8.52247
O 1.74966 -4.02307 0.56647
O -2.75804 4.09154 -5.08481
O -4.68666 -8.5549 4.21145
O 7.95897 -4.22339 -1.39976
O -7.55578 10.1446 -9.56522
O 4.76137 8.37678 -3.64597
O 8.63798 0.503814 3.80795
O 8.13008 -1.27852 -1.788
O -5.72481 4.23397 -0.513884
O 3.12998 5.01138 5.79285
O 0.97757 7.41205 -9.65918
O 6.47538 6.73985 3.07149
O -6.60588 -10.0947 7.21064
O -4.49086 -10.0843 9.00799
O 1.82539 -3.27757 -4.06857
O 5.92664 -2.47572 2.89071
O -0.361435 5.51348 6.03132
O 1.2022 -7.75607 3.52335
O 7.67761 4.9548 -5.76447
O -10.4541 0.22686 2.17006
O -0.433703 0.672116 -4.95312
O -3.75596 -5.30232 -5.74571
O 5.27448 -4.8363 3.65054
O -3.46303 3.62454 -1.53161
O 8.51395 -10.2786 -9.09117
O -6.48176 -7.56339 -5.81449
O -3.71331 1.80582 7.22615
O -7.74253 2.62592 8.57087
O 6.38643 9.52848 -1.88953
O 1.83782 9.89324 -2.98647
O -2.36099 -4.93582 -9.84448
O -10.21 -8.71131 -2.59152
O -10.3075 6.14339 4.53191
O -8.86465 9.59386 6.85409
O -10.1011 10.4892 -10.0589
O 9.57468 -9.14744 -0.385414
O -5.63104 4.3871 5.09386
O -4.03321 -0.687197 0.134053
O 8.07908 -9.11147 -4.06577
O 4.50935 -9.43301 6.85033
O 6.32489 4.68317 -0.60325
O 7.10445 -6.64519 -0.390359
O 8.74152 9.13903 -4.27995
O -6.81944 6.61967 5.46315
O -5.70995 6.84448 -3.88281
O -1.96567 0.853935 0.00693796
O -0.436718 -2.74634 -0.0366335
O -4.59861 0.905451 4.93686
O -10.4791 -5.68987 -4.19883
O 0.520113 7.40746 -7.02846
O 1.9676 -8.61683 7.40949
O 9.67286 -7.01514 -6.22943
O -8.79748 -7.50667 -6.96996
O 0.974224 7.59201 7.10258
O -0.523349 4.11429 4.10308
O 2.18654 9.17844 -7.99167
O -7.4692 -1.41524 -4.47288
O 4.95506 -8.1366 -0.18398
O 2.31633 -7.38094 -6.11537
O -8.52108 7.97864 -2.48753
O 1.24532 5.72887 -0.463453
O -6.51991 -1.00034 -8.71039
O 1.54771 1.71437 -3.67759
O -6.32046 -8.0053 8.74752
O 9.70459 -10.2225 6.53588
O -8.32397 -0.0482663 7.90671
O -8.95435 2.11573 1.61596
O -3.88289 -2.75562 -6.29695
O -4.84656 -10.3796 -0.801283
O -4.73288 -7.69162 -0.86661
O 4.29327 5.4697 3.55664
O -9.86644 6.28025 -0.83654
O -4.93481 -5.00104 -9.49539
O -6.94869 -6.86109 6.50794
O -6.95477 1.0866 -4.07435
O -7.26979 6.43591 -0.774828
