579
Atoms. Timestep: 1790001
Si 1.55201 -6.66225 8.14901
O 1.75431 -5.7842 9.61408
H 1.98297 -4.87451 9.46354
Si 0.142928 -9.22899 9.37651
O 0.520069 -8.9083 11.0228
H 0.398842 -7.99539 11.2561
Si 9.43617 -9.91755 8.52547
Si 1.38087 -9.7956 -6.26554
Si 9.24308 5.8711 -2.98314
Si 2.47925 -5.8748 -4.21181
Si -4.01855 4.01147 -1.98533
Si -8.93332 -7.82118 1.63815
Si -8.0657 -1.5885 -5.61054
Si -1.27045 0.638791 -3.14174
Si 10.4205 4.76121 -0.374572
Si -1.95847 -8.32276 4.46065
Si -4.69909 -2.19174 6.51438
Si -6.81152 3.02271 -6.94141
Si -5.77611 7.74688 8.13075
Si -4.59842 -4.56642 -6.64691
Si -0.935836 3.66566 -2.27876
Si 4.85649 1.22315 6.58106
Si 6.79974 1.28604 -7.84526
Si 3.61501 -4.86521 -8.13141
Si 6.49126 -8.9787 -6.21032
Si -7.16709 -6.8548 -3.23682
Si -2.02804 -6.00815 -7.87602
Si 1.4559 9.64954 7.50947
Si 6.16723 4.16394 6.62054
Si 5.74328 2.39173 1.81146
Si -4.59321 -0.467722 1.71914
Si -7.56581 -5.92181 -6.1541
Si 3.90285 -10.2541 5.94618
Si 10.4615 0.662354 2.15973
Si 6.88942 -5.91393 -2.56655
Si -10.476 9.37876 -5.48804
Si -0.123134 3.13067 2.74583
Si 8.88057 -4.12156 -7.35036
Si 6.80343 -9.02293 -3.13611
Si -9.28446 -4.663 -8.34995
Si -9.10876 2.0035 7.37228
Si -3.82387 5.86827 5.27211
Si 10.4909 -9.95066 3.11805
Si -3.73586 9.40317 -0.333361
Si 8.9434 -10.3074 -1.26632
Si -1.10357 -3.7759 3.89748
Si 6.94897 -2.69397 4.28371
Si -0.725552 4.49525 -5.22327
Si -6.79339 6.13985 -6.26844
Si 5.34417 -5.54237 4.48939
Si 8.17859 -8.97977 1.49625
Si -4.82804 0.721831 -7.05108
Si -1.03168 -2.25453 -6.59434
Si -9.03153 10.35 -7.94191
Si 10.1268 7.93179 -7.92548
Si -9.58719 5.54515 -4.98453
Si -3.25303 -6.79558 6.82649
Si 3.06394 8.75265 -5.98931
Si -5.80815 -8.04559 1.98768
Si 10.3709 -3.23888 -4.73359
Si -1.72756 -6.62299 -4.13949
Si -5.49725 9.73863 5.93749
Si 0.575615 -6.67101 -2.05033
Si -4.05086 -2.84836 3.54707
Si -4.1896 -6.18178 -2.38638
Si 6.82698 -6.37451 0.591824
Si 0.694285 9.05403 -4.21137
Si -0.548303 0.136884 5.7779
Si 2.66517 1.20954 -7.16842
Si -2.92949 -9.57289 8.34193
Si 2.07228 8.97879 -1.5409
Si -9.88281 -6.07593 4.16356
Si -2.09075 0.556043 8.40789
Si 3.64675 -7.52234 -6.48481
Si -9.80811 -0.65049 -0.454209
Si -1.7461 7.30026 -5.43171
Si 2.83442 6.77318 7.64058
Si 4.17377 -4.65875 -2.09034
Si 5.3652 -2.38333 -0.391222
Si 5.63644 8.29261 -4.67112
Si 9.19951 -5.21759 7.6613
Si -1.58851 -8.72174 -6.62298
Si 7.73824 -3.57371 1.38685
Si -9.63208 3.52811 2.86777
Si 9.77277 -5.98879 -3.595
Si 2.3048 3.70438 -5.49824
Si -2.79747 -3.57649 -1.60294
Si 9.61079 -0.884739 -2.94104
Si 9.54076 5.87902 3.82704
Si -6.41962 9.25723 -6.62106
Si 9.9205 1.60119 -4.67549
Si 4.22088 5.87514 4.83805
Si -4.31944 5.27291 8.31858
Si 9.72327 2.0372 -7.89027
Si 0.614125 -2.19107 1.88477
Si -0.149008 -6.28175 2.84753
Si 1.13037 -1.24974 -2.35561
Si 3.024 3.36631 3.40882
Si 2.90255 -9.508 3.11849
Si -4.51846 6.34506 -4.08054
Si 4.25814 6.09062 -5.99378
Si 9.56873 4.94371 -7.47757
Si 0.127515 -1.96217 -9.77535
Si -7.65285 5.97783 6.39482
Si 1.73014 -2.80404 -7.15176
Si -8.24071 -0.779105 3.86817
Si -6.82805 -9.97816 -3.78223
Si 2.02551 1.0487 -0.309308
Si 7.43206 0.263181 7.02522
Si -4.83131 3.51121 3.56223
Si 7.90677 4.588 1.62662
Si -5.89685 -5.33915 3.5726
Si -1.33528 7.91032 1.22722
Si 8.76701 -2.37986 6.96592
Si 4.37101 -9.99175 -1.28083
Si 0.860011 4.40991 7.53042
Si -7.1326 0.675149 0.484754
Si -2.0384 1.83765 -5.96584
Si 4.82455 -0.485904 -8.90801
Si -9.36059 9.63829 -2.57647
Si -0.0173194 -4.93948 -5.88198
Si -8.70423 0.568278 -7.76985
Si -9.55897 -6.45246 -1.2305
Si 2.84431 -0.941667 -4.94853
Si -4.79922 -2.03449 -8.67933
Si 3.92405 -7.12184 -0.122479
Si 2.82087 -6.47291 2.73561
Si 6.07828 -2.99071 -7.3597
Si 5.76851 6.69842 8.08311
Si -4.18898 -10.0372 3.48575
Si -5.87429 7.54306 1.09938
Si 4.46769 -7.30697 7.01537
Si -7.70838 -2.14433 -8.66749
Si 0.785769 10.0783 1.21741
Si -5.34026 4.56181 0.663641
Si -7.10275 7.98378 3.96243
Si 3.40839 -0.793898 1.55041
Si 6.7268 -0.521662 -2.42473
Si 8.27667 8.36504 8.19733
Si -5.73401 -0.592579 -4.3731
Si 8.20622 -6.59561 5.14396
Si 5.27177 -0.0416428 3.70019
Si 5.8294 6.50178 0.365981
Si -4.41961 9.35803 -3.34628
Si -10.2725 -3.6818 0.236813
Si -5.98236 -5.03787 6.6664
Si 5.30887 -10.3663 1.53773
Si -3.622 -8.37566 -0.204702
Si -8.2732 2.76587 -4.11317
Si 10.425 7.19606 6.508
Si 2.79649 5.98445 -0.718479
Si -3.1264 1.12488 4.13575
Si -2.2551 -3.35801 -9.357
Si -9.85287 -0.692053 6.43
Si -4.83075 0.698591 6.8246
Si -0.58683 0.60325 1.22643
Si -6.06071 1.72643 -2.28924
Si 7.30675 8.05991 -1.95886
Si -3.27993 9.72855 -6.17006
Si -6.67817 3.30072 7.64946
Si 9.02522 -7.10969 -6.40249
Si -8.53669 -3.79791 2.9222
Si 0.126845 -3.82725 -0.82812
Si 5.92786 2.38062 -1.50314
Si -9.22063 -7.63176 -8.01496
Si 6.07693 -0.778398 -5.45335
Si -9.99111 10.3166 6.12423
Si -1.56147 -2.13623 7.4548
Si 7.74632 9.40519 -6.67315
Si -8.6568 -9.25794 8.33259
Si 8.94077 0.8155 4.56551
Si -1.31314 10.0144 5.99957
Si 8.98384 2.8273 6.60562
Si 6.60347 4.01074 -6.50675
Si -0.700264 -4.89988 6.82961
Si -8.15819 3.51993 0.528054
Si -8.69649 7.43009 -0.332312
Si 6.42789 8.67864 5.83841
Si -8.78201 -6.28969 7.13442
Si -2.84575 -0.468789 -0.785216
Si 7.48599 -7.6145 7.9479
Si -1.71003 3.51681 8.5102
Si -0.497499 -8.24632 0.318041
Si 3.03691 -2.50659 -9.78403
Si 5.68641 8.01698 3.15513
Si -1.14355 4.31922 5.54146
Si 2.07652 1.80003 6.07853
Si 3.0797 3.23095 -2.42358
Si -7.46486 2.01484 4.56509
Si -2.82702 8.33833 3.79506
Si -0.0855329 0.363165 -7.89291
Si -3.34882 -2.79131 -4.50104
Si 0.0173839 5.16874 0.380254
Si -9.89089 8.2 2.43459
Si 7.72321 3.52427 -3.67832
Si -5.90914 -10.2884 8.74811
O -4.22536 5.674 6.74232
O 7.01281 7.52402 8.79497
O 8.07756 9.40047 -1.42451
O -9.49064 0.44359 7.50818
O 1.60817 -0.293716 -1.18454
O -8.25701 -0.33053 -0.0387206
O -8.7375 -0.223117 -6.34727
O -1.89929 2.02852 9.07753
O 1.24102 -5.48617 -5.1224
O 6.03083 7.29955 1.76828
O -6.31587 1.38525 -0.700443
O -7.20553 -4.69003 2.87721
O -9.29877 -2.52098 -5.12905
O -10.3963 -4.74551 -4.12664
O -5.09231 7.87749 -3.65095
O -10.3963 2.27196 2.22222
O -1.84908 8.97009 4.95114
O -2.24767 -4.92074 -9.15573
O -4.31771 -10.0268 9.02789
O 5.39482 5.07311 -6.65872
O 5.78166 2.32077 0.177057
O 2.39812 2.15275 -1.42422
O -0.235339 4.04985 8.7344
O -0.56766 4.52036 -3.62447
O 4.6607 7.08534 3.93089
O 8.314 1.37646 -8.29746
O 9.4753 -6.94467 -4.88148
O 2.18829 9.89569 -6.71583
O 8.62 -5.63878 -6.94281
O 2.48819 -7.94524 3.40831
O 3.65104 -6.43166 -7.71879
O 2.26295 -1.07364 -3.47979
O -0.768766 -1.43297 6.19454
O 6.39122 7.33386 -0.872293
O 3.86397 -0.508157 3.06637
O -8.08657 -10.5033 -2.92075
O -1.87708 -2.82115 -7.81033
O -1.83014 3.39628 -5.6522
O -0.950268 -3.59467 7.70509
O -10.0529 -10.1432 4.64747
O -1.99688 -5.86382 7.01622
O -6.1939 -0.0346776 1.5733
O -3.15382 -6.33874 -3.61738
O 3.77176 -8.55464 -0.792198
O -2.36743 8.77852 0.322319
O -1.07996 -5.01597 2.83513
O -2.50856 3.77173 -2.23342
O -9.59598 6.09767 -0.344304
O -3.94672 -7.51971 -1.52132
O 6.09098 -1.39969 3.97774
O 0.758634 3.95479 -5.62078
O 4.45758 -0.770001 -5.14705
O -4.74243 4.8964 4.31321
O 6.59977 -7.38723 -3.11263
O 3.82334 0.460732 -7.97362
O -0.672007 8.23046 -4.58584
O -8.68765 -7.70114 7.86885
O 9.69628 4.94266 -1.75097
O 4.48691 -1.56886 0.662855
O -9.53697 -4.49627 4.08331
O 0.527543 -2.63604 -8.35095
O 0.641092 -7.94173 8.48514
O 0.138414 -2.91284 3.26815
O -1.03038 0.712549 7.14493
O -1.08487 -2.83278 -10.2768
O 10.3372 -6.69333 -2.32383
O -4.66344 -0.520389 -8.08627
O 9.34162 4.5086 0.791056
O -3.57899 0.680746 7.89756
O -0.45859 4.23105 1.63206
O -1.62502 3.40871 6.85778
O 7.60021 -3.36706 -7.83101
O -1.94151 -7.595 -7.77263
O 5.93977 7.35643 6.63125
O 2.77977 -2.11691 -8.2426
O 0.113096 5.11233 6.32756
O -10.4568 2.83744 7.20295
O -1.55514 1.12426 -4.59815
O 4.10079 -1.29844 -10.1421
O 3.2764 -10.2195 4.45733
O 9.58045 6.55492 5.27999
O 7.09551 3.255 -2.19273
O 4.33545 9.1573 -5.10011
O 10.4996 4.568 3.69552
O 10.3001 -7.50034 -7.36322
O -5.54556 2.13211 -7.35713
O 10.2212 0.242198 5.45773
O 2.75469 10.2809 6.92983
O -0.789734 1.78839 2.26119
O 4.21361 6.88226 8.41325
O -2.67737 -3.29908 -3.15979
O 8.96025 2.32905 5.05201
O -1.67174 0.13288 0.192249
O 6.73038 3.43719 -4.96546
O -8.96276 4.2259 -4.18091
O -0.279661 4.33802 -0.966219
O -7.99543 2.75536 8.34945
O 2.5298 7.47152 -1.28011
O -8.69155 4.3504 1.80604
O -4.84419 9.61381 -6.65586
O -5.70703 0.122691 -5.78515
O -7.14121 7.34081 0.0637321
O -4.44719 -1.90948 2.3026
O -6.05635 2.68372 4.18248
O -6.53597 7.63514 -6.65271
O 5.47266 4.96939 5.38009
O -5.71207 0.432233 -3.19941
O 1.56549 -2.19353 -10.4901
O 10.1687 -4.18982 -8.32907
O -0.656883 -5.5743 -7.18961
O -2.2718 5.38076 5.24178
O 6.56942 0.310471 -6.5264
O 9.92005 3.55647 -8.26998
O 6.86805 -10.3078 -7.12285
O -9.39098 8.16971 0.888662
O -7.19967 4.44939 6.56022
O -5.70983 -6.22074 -2.87043
O 7.68687 0.310978 5.3954
O 2.82816 2.68585 -6.63775
O -5.39272 -9.42691 2.67825
O -9.46645 3.61004 -0.410696
O -8.63766 -4.94533 -6.9162
O -8.62493 2.75124 3.83787
O 5.46029 2.73444 6.64783
O 6.60221 -2.82813 0.487351
O 7.79464 -3.10648 2.94302
O 6.40949 8.3616 -3.29782
O 4.151 -5.80165 3.40329
O -0.083265 8.76852 1.52804
O 6.98755 -5.05268 1.43664
O 7.02666 3.33466 2.16066
O -6.25397 7.96025 2.60209
O 8.29143 -5.39988 -3.23812
O -7.27657 0.467247 4.17189
O -4.64783 6.74207 8.87103
O 7.8605 -7.44302 1.15518
O -9.46271 -9.23228 2.16749
O 8.9326 9.62374 8.92972
O -9.3662 -0.118866 2.93073
O 10.3716 9.5655 2.65001
O -8.1897 -6.55369 -2.06183
O -9.86541 9.07933 -8.53812
O 5.96178 5.13257 7.85942
O 3.88427 -6.03638 -1.25969
O 8.26867 -6.30649 8.39696
O -0.756828 -6.88193 -2.91389
O 2.47486 -2.24055 -5.81246
O 9.62701 0.0922921 -4.23726
O 8.09119 -1.06081 7.57482
O -8.15423 1.95769 6.05558
O -2.61005 -9.94356 -6.54637
O 8.28069 -0.741922 -2.01694
O 6.17829 0.863934 -1.89845
O 3.24983 1.18454 6.87062
O 6.69962 8.42561 -5.87424
O -9.73608 10.3915 -6.48253
O 5.54126 -9.5846 -2.31269
O 8.93711 9.8159 -5.65492
O 4.97735 0.685733 5.07998
O 9.16753 -3.74101 0.726939
O 6.51661 -9.50389 -4.64799
O -4.65708 -2.2495 4.91101
O -5.26495 6.10738 1.07653
O 8.29069 4.98267 -3.79967
O 3.30234 9.98648 -1.94549
O -3.5267 2.66333 3.95273
O 1.83615 -10.3587 2.21036
O 4.30873 6.14939 -0.0270817
O -4.07099 -0.220991 0.223509
O -6.01907 -5.46242 -6.64318
O 5.37337 -7.05184 0.45977
O 6.80102 -9.75243 1.65066
O -6.65093 9.09351 4.98671
O -9.16602 -6.50145 5.57535
O 0.912298 -10.4652 8.73762
O -7.50072 -2.22037 -6.94738
O 6.82684 5.26181 0.590662
O 2.26854 -4.37125 -7.4387
O -6.88603 -8.38715 -3.75179
O -0.0653021 -9.25099 -6.82838
O -4.572 -10.395 5.0159
O 9.68875 1.99141 -6.24671
O -0.155368 -0.781971 1.87235
O -8.57775 -3.40861 -9.03221
O -3.0116 -7.48329 5.37934
O 8.45572 7.12148 -2.48281
O -8.59009 8.31629 3.32811
O 3.04801 -7.07039 7.63615
O -7.94258 1.96359 1.00891
O -10.4321 6.26304 -3.82573
O 0.743218 -5.3009 -1.26241
O -4.24239 -3.98869 -5.20916
O -6.10609 9.08049 8.9402
O -2.94413 -8.991 3.339
O -0.628108 3.55665 4.22181
O -9.93345 -4.88733 -0.740302
O -0.832556 6.59739 0.426296
O 0.937889 9.00389 -2.64731
O 5.82968 -7.35626 7.96316
O 9.44074 -3.32698 -6.03577
O -0.139056 -7.11499 1.44304
O -6.80559 4.20057 0.0883022
O 6.29889 -2.26569 -5.94301
O 9.62153 -6.65865 4.32852
O 8.67603 -5.32243 6.10156
O 6.78697 -6.33157 4.40402
O -2.47126 8.35223 -6.44919
O 8.93861 -3.69001 7.92036
O 3.32595 6.49127 6.08093
O 4.95994 6.82278 -4.79191
O 8.89238 2.5096 -3.93097
O -3.75919 -10.0013 -0.152338
O 1.91796 8.28588 -4.93804
O 2.30009 0.299695 -5.80606
O -7.33204 -7.93419 1.44795
O 2.34772 -8.55995 -6.50634
O 2.01005 5.47117 8.00891
O 5.8481 -3.94106 4.56404
O -10.2463 -5.61922 7.67153
O 4.69845 -6.20792 5.80805
O 0.697054 -5.69251 7.15753
O -2.4795 -3.00328 3.68964
O -9.52397 1.87677 -4.41715
O -2.39816 10.3823 7.16566
O -10.2233 -0.39939 -1.96603
O 6.74853 -0.472023 -4.03926
O -0.20424 -0.553184 -2.91707
O 8.88165 -9.62604 0.176238
O -10.0687 8.67615 6.13822
O -9.37676 -3.82147 1.56851
O -3.69646 0.38455 2.79836
O 9.07984 -9.2468 2.77727
O -4.95452 8.68223 0.418647
O -3.24855 -8.14851 7.69173
O -6.85469 4.70846 -7.11274
O 1.82044 -6.84733 -3.06482
O -1.7258 -0.972254 8.60775
O 5.49741 -1.76349 -8.21037
O -4.4546 5.2743 -2.90898
O -10.4875 10.4856 -1.76643
O 3.4847 -4.07952 -9.57956
O -8.79197 -10.2282 7.09361
O -1.39509 -4.1163 -1.11375
O -8.76342 -1.10441 5.38641
O 2.70364 3.13797 -3.98911
O 3.10336 -4.69159 -3.26512
O 0.69265 1.28532 0.48984
O 3.07034 5.12482 -5.69892
O 8.03116 4.70339 -7.00029
O 7.67827 8.99446 6.85198
O 7.8038 3.9937 6.58692
O 8.23657 5.38543 2.99057
O -5.73229 2.05342 7.13871
O -10.0545 -2.18345 -0.27601
O -7.61407 -6.07041 -4.58355
O 4.29795 2.94451 2.44619
O 4.99982 10.3451 0.0168682
O -7.37566 2.34265 -2.87614
O -1.61215 -7.8168 -5.20587
O 7.7411 -8.03557 -6.42038
O 5.97302 0.616693 -9.07062
O -8.92145 8.32154 -1.63667
O -1.27045 -9.63549 5.14697
O 1.91265 8.04419 7.80923
O -10.1536 -9.50059 9.07308
O -2.89717 -2.05941 -0.940769
O 4.43117 -8.77757 6.35763
O 10.2356 6.98653 2.84465
O -5.46504 -10.4587 -3.0871
O 3.158 0.529588 0.725227
O -1.24201 -5.24054 -4.90673
O -0.707919 2.07038 -2.50499
O -4.86559 2.76835 -2.46993
O 2.97537 -6.67835 1.13128
O -9.51602 -7.26312 0.211818
O -6.82593 10.1077 -5.14709
O 8.22158 1.65596 7.41056
O -0.149518 -9.70174 0.875683
O -10.441 7.90738 -6.3573
O 0.117154 9.63787 6.56754
O -5.04195 3.65515 1.99134
O 10.3477 0.109001 0.684737
O -7.87375 1.97603 -7.56819
O -0.403713 -0.533366 -9.22968
O -2.89265 4.57436 8.71453
O -5.81619 -6.86711 3.05943
O 6.37832 2.76195 -7.40903
O -3.37098 1.13546 -6.4749
O -6.21267 -5.33241 5.11329
O -4.42206 -1.5659 -4.37043
O -3.8246 7.29337 4.48943
O 1.40547 2.99902 6.9562
O -1.70997 0.481247 4.70079
O 2.87958 4.79973 -1.86297
O -2.10037 -8.12731 0.0989436
O 8.16448 -8.91847 8.6068
O -9.33946 -6.77608 2.83382
O -3.46421 9.65308 -4.55801
O -7.39867 -5.53028 7.33679
O 8.14424 -9.38586 -2.40679
O -2.08375 7.58545 2.64134
O 9.7241 -2.39108 -3.53056
O 5.17321 9.70264 5.98839
O 1.54046 3.14848 2.74314
O 9.53708 7.35143 7.79208
O -5.87163 -10.2516 7.11359
O -9.08083 -9.13177 -8.58688
O 4.37815 -3.56751 -0.943626
O -7.17286 2.85662 -5.36769
O 4.62811 2.87849 -2.20408
O -8.07959 -7.27978 -6.89999
O 0.715715 -2.72987 -1.89251
O -2.18061 -2.34539 -5.45231
O 5.02604 -8.3481 -6.49662
O -5.57547 4.27306 8.42904
O -9.24432 6.19897 6.6542
O 4.19119 -9.42299 2.12584
O 1.62669 9.60472 -0.119667
O -1.12532 5.91443 -5.90464
O 2.79276 2.45368 4.76244
O -3.77559 -4.86073 -1.54335
O -4.77862 -3.22153 -7.53773
O -4.66448 -5.97117 6.92582
O 7.89035 -2.51809 5.588
O -6.27925 -2.11967 -9.26699
O 3.20515 4.89484 3.9959
O -6.88235 6.86519 7.50904
O -8.0606 -2.29112 3.30136
O -9.16412 -6.19345 -8.93909
O -10.0178 9.29935 -4.00085
O -8.2199 -0.627245 -8.71613
O -5.61673 5.84304 -5.15702
O -4.60714 -4.35323 3.43492
O -3.43049 -5.50636 -7.17114
O 0.282564 -3.09364 0.590195
O -4.73594 -7.72354 0.887106
O -7.06498 -1.42151 -4.38704
O -7.53134 9.87836 -7.72559
O 7.90285 -7.65689 6.36361
O -5.05637 8.47811 6.83553
O 5.79227 -1.6133 -1.73924
O -3.07921 -2.24994 6.96766
O 10.3094 -1.90374 6.77125
O 5.228 9.41059 2.52076
O -0.781328 -7.34841 3.92536
O 1.6009 5.57839 0.344981
O -10.0859 1.18997 -8.37403
O 2.13301 -1.7351 1.69706
O 4.96702 -4.15243 -7.45557
O 10.4679 5.02871 -6.10407
O -7.26083 -9.52236 9.1457
O 5.89776 0.393715 7.45831
O -1.01865 1.47095 -7.19402
O -5.3186 -0.774817 6.94643
O -0.853835 -4.40166 5.34125
O 9.94216 6.35285 -8.20382
O 7.09131 -6.01381 -0.959058
O 5.62041 -4.95035 -2.7536
O -3.56412 -2.48057 -9.58993
O -4.14462 0.826906 5.39185
O -1.44981 -9.40037 9.12464
O 5.87889 0.972393 2.55978
O 8.64551 8.67026 -7.82842
O -7.33481 6.62726 4.92202
O 9.77412 -10.0184 6.93279
O 1.3274 1.037 -8.032
O -0.237591 -0.875417 -6.7843
O 9.15247 0.428503 3.06868
O -5.5359 -3.54824 6.92928
O 3.65855 7.42171 -6.75673
O 1.40556 -5.7793 3.05129
O -8.25206 6.18011 -5.60079
O 0.203234 -3.32558 -6.22062
O 3.50393 -6.59299 -5.17277
O -3.55098 9.54172 3.08536
O -3.68702 9.10577 -1.91067
O 6.72657 8.42729 4.28438
O 0.403174 -7.88684 -0.952876
O 0.827725 -10.4336 -4.85664
O -2.53371 0.186361 -2.20098
O -4.258 4.27543 -0.414947
O 0.892256 0.814848 5.52493
O -3.04001 6.66952 -4.63661
