585
Atoms. Timestep: 1790001
Si -5.13907 -2.73522 9.20263
O -4.06281 -2.60908 10.5823
H -4.29695 -1.92573 11.1994
Si 8.53062 -8.45012 6.25951
O 8.82281 -7.09021 7.32731
H 8.55988 -7.20418 8.23306
Si 7.09472 10.3739 8.14447
O 6.94653 -9.92904 9.70314
H 7.18518 -10.5038 10.4209
Si -3.56012 -5.32878 9.02083
O -3.09942 -5.08348 10.6065
H -3.28891 -4.21628 10.945
Si 4.7925 -0.78184 8.93405
O 4.49778 -0.989716 10.6026
H 5.2278 -1.3664 11.0798
Si 7.78648 -1.89419 9.09042
O 7.67933 -2.58964 10.6201
H 7.90037 -1.99507 11.3273
Si -3.18907 9.3221 -9.53864
Si 3.8374 -6.8627 -9.06689
Si -4.75896 7.49706 -8.85069
Si 4.73153 -9.14798 -8.93397
Si -8.57428 -7.32119 -6.75687
Si -2.23705 -6.23706 -4.37113
Si 8.53289 5.12835 4.54162
Si 6.29234 -7.41462 4.32753
Si 1.10711 6.17273 -3.98387
Si -9.83032 4.00121 5.98232
Si 4.99895 -1.79177 0.739872
Si 10.0414 4.94764 -3.71259
Si -0.323046 8.85349 -8.9332
Si -8.1346 -2.52793 9.23901
Si -9.01655 -6.27266 -3.85957
Si 2.34441 -1.80726 -5.68776
Si 0.790225 0.832875 6.31084
Si 8.23062 2.10572 3.45284
Si 9.70841 -9.07444 0.665463
Si -8.64469 -1.57425 6.48662
Si 10.2731 -1.36844 -5.39875
Si -8.42637 5.15042 8.60509
Si -3.62173 -3.76239 -7.51012
Si -1.96251 -6.36432 -7.53598
Si 8.1337 8.34787 -4.34788
Si 3.29409 4.68227 4.01243
Si -7.2203 6.66677 5.28666
Si -7.50439 9.57412 -4.75808
Si 9.48847 -8.30145 -6.75853
Si -6.85592 7.12186 -6.69107
Si -6.476 1.88175 7.05242
Si -9.84064 7.48501 10.2245
Si -0.72278 1.24153 -8.5438
Si 6.34407 1.25494 -1.61363
Si 6.85646 6.52466 -2.06089
Si 2.90221 -4.78644 -5.58556
Si -3.97291 -3.50821 2.08427
Si 1.33659 -3.0368 -1.59497
Si -6.44228 -8.23216 1.71812
Si -3.14602 -7.31348 -0.600647
Si 5.58311 -4.40493 5.1911
Si 6.86162 2.74273 -6.02949
Si 7.4453 5.0709 0.640813
Si -3.37781 -8.82276 2.04852
Si 3.9186 4.88193 7.09738
Si 6.56629 6.34239 6.70781
Si -8.48915 6.31718 2.63276
Si -4.71189 -8.17328 8.22885
Si -4.92107 7.84784 0.492996
Si 3.70512 10.3663 -1.02332
Si 3.20474 -6.53012 1.08013
Si 1.30079 7.12132 4.23226
Si -7.22865 -1.65133 -2.9166
Si -8.64207 3.13507 -4.31165
Si -8.61887 -5.2786 8.17271
Si -9.41722 8.37607 6.46999
Si 9.15593 4.97542 -6.84213
Si -0.582574 -7.98834 -2.30679
Si -9.46022 -8.75939 5.63872
Si 1.26292 -9.59635 -5.84635
Si -1.80931 -4.32915 6.70011
Si -3.34891 9.58355 -3.75783
Si 5.21082 -4.48438 -7.82171
Si -3.54034 -9.10965 -8.06912
Si 7.46044 -0.352555 -6.0106
Si -7.54635 -9.72649 -0.969479
Si -1.23286 3.83149 -10.2543
Si 5.66355 9.87502 -5.17155
Si 0.663444 -5.87117 -0.622118
Si 10.3694 0.320999 1.94748
Si 4.63291 -10.1039 4.11716
Si 2.66697 -9.57127 1.78128
Si 3.71009 2.39576 -5.88615
Si -6.40107 3.12279 -8.00221
Si 1.8829 5.7098 0.323255
Si 8.02065 -1.68211 1.93855
Si 7.60871 7.58749 -7.38963
Si 8.13414 -4.01994 -1.60003
Si -9.40393 1.92144 -0.437258
Si 2.63884 5.32118 -6.51722
Si -0.927487 10.0123 -1.82221
Si 5.81176 -6.0746 -0.868074
Si 7.20832 3.85132 -3.11593
Si 3.61911 1.02712 -2.93215
Si 4.72393 9.06745 6.74904
Si -8.45772 -1.3425 3.47857
Si -6.551 -9.69396 5.02099
Si -3.12923 9.08284 5.77166
Si -5.2554 10.046 7.75482
Si -5.83946 4.26725 -3.14685
Si 4.79836 6.03478 1.93128
Si 4.96968 -6.41756 -3.91683
Si 8.75681 7.63584 2.66686
Si -5.81314 0.276845 -7.14927
Si -6.50085 -5.12983 1.0227
Si 1.19895 -6.79697 -7.381
Si -2.32484 9.44791 0.809561
Si 7.55749 -0.4641 4.85246
Si 0.879042 -2.7449 2.92104
Si -7.58261 2.76975 4.25682
Si 8.18396 -3.01927 6.17101
Si 9.27806 8.84194 -0.178906
Si -5.35741 8.70521 3.62904
Si 4.54159 7.58625 -7.12822
Si -5.73727 -4.66512 7.01387
Si -9.33098 0.496458 -3.16368
Si -7.91377 -8.13979 8.37107
Si -2.1391 3.05406 -6.43331
Si -2.67302 -1.99193 -5.23356
Si 6.10536 2.21952 1.13552
Si -5.92338 4.70001 2.24484
Si 3.51498 -9.19138 -3.76307
Si 8.9332 7.80883 8.07885
Si -6.40325 0.58842 2.70404
Si 7.37332 -5.89666 -5.94497
Si -4.60337 -7.2756 5.42105
Si -9.85194 6.84803 -1.65037
Si 7.25821 -10.346 -7.73531
Si -6.26128 2.31642 0.091149
Si 0.582195 -2.35797 6.04616
Si 3.78677 -4.0456 2.68018
Si 0.177266 9.61008 2.67478
Si -4.86393 2.38501 -5.33499
Si 10.4316 -10.4495 -4.35373
Si -7.68709 -2.01253 -6.01891
Si -1.12861 -5.09294 1.87068
Si 0.692364 1.00929 -1.6879
Si 6.86551 -1.58751 -3.10352
Si -0.826423 6.9342 6.40378
Si 1.43992 2.15123 3.48063
Si 0.268481 -1.05498 0.598794
Si -2.74588 -0.715063 1.38699
Si 4.49838 0.0337002 5.22683
Si 7.51806 -7.16153 1.39678
Si -1.74857 -6.7115 4.50346
Si -8.81453 4.57617 -7.15147
Si -1.55539 10.2407 -6.28462
Si -4.89814 4.83135 -0.315336
Si 6.29047 9.01703 -0.792441
Si -2.88119 4.60584 6.5982
Si 9.20464 -4.53853 1.27144
Si -9.71113 9.0354 3.39581
Si -3.42827 1.16234 3.64997
Si -6.48324 -4.88399 -6.6374
Si -6.21573 -9.18144 -6.63894
Si -10.2358 -8.45495 -2.01421
Si -9.25453 2.26982 8.38685
Si -1.51956 -9.58939 4.547
Si -5.72276 4.82406 7.4014
Si -4.29277 -0.518286 7.09373
Si -3.76804 4.42053 -8.83714
Si 10.4786 4.77455 0.647994
Si 9.58364 -4.39243 -4.3767
Si 0.020903 5.9576 -8.20289
Si -1.50687 5.82718 -5.43933
Si -2.23751 1.55079 6.66414
Si -6.88392 -4.67358 -2.12418
Si -3.67513 -4.63106 -2.17581
Si -10.3335 -0.522193 8.89892
Si -4.10101 -1.55401 -2.49483
Si -5.28853 -6.94951 -4.61915
Si 3.66918 0.70359 2.16641
Si 2.19717 7.43555 7.15607
Si -3.12132 4.32684 3.37593
Si -8.14787 9.78767 8.90049
Si -4.98705 -8.98658 -2.4529
Si 4.84501 -1.38655 -7.46659
Si -9.05413 -4.40107 2.76343
Si 4.18649 -1.98483 -2.29509
Si -9.19085 -8.86978 2.82215
Si -3.08237 -0.811688 -7.99948
Si 3.4973 1.81571 7.57234
Si 0.576708 4.14234 -1.97074
Si -3.56752 1.11272 -0.994502
Si 5.91816 8.66683 2.38081
Si 1.55551 8.11714 -1.48992
Si -4.50363 6.73028 -4.54685
Si -2.02474 3.79665 -0.795955
Si -0.404285 4.18715 1.92305
Si 2.23809 0.23211 -7.79562
Si 2.48639 9.71902 -8.19491
Si -7.23166 8.49833 -1.71146
Si -10.0207 -4.32346 5.69035
Si 3.57768 -2.59632 6.66619
Si 0.0380293 -1.29166 -3.73178
Si -4.28772 -2.87912 5.24557
O 4.33245 -8.0169 -10.0777
O -4.3433 8.32238 -10.236
O -0.950366 4.64291 -1.70291
O 6.56727 -7.25645 2.72897
O 5.85539 7.62129 -1.46653
O 2.10959 6.0806 -5.24575
O -1.82123 -7.80098 -1.32329
O 1.47018 -1.16884 -4.51689
O -6.6845 -1.03845 -6.80049
O -4.25493 -8.35248 -1.26149
O -8.97628 4.86693 7.02909
O -5.52208 6.68054 -5.74507
O 1.04263 1.25187 4.76616
O 9.63227 5.17036 -5.31138
O -1.37381 4.19758 -5.50878
O 4.08141 -4.65505 -6.63531
O -5.09887 -4.41918 -7.31874
O -8.08653 7.45153 6.38044
O 5.28619 2.6091 -6.26234
O -0.908463 9.44355 -7.54089
O 7.18193 -1.05837 -4.58248
O 8.95905 4.80712 1.02924
O 5.41784 -6.29561 -2.4075
O 2.22448 1.05432 -2.2127
O -9.84549 1.25193 -1.8153
O -6.54962 1.50024 -7.89054
O -9.88247 -0.955423 7.37987
O 9.90028 -9.31582 -5.4283
O 1.66792 -1.05824 -7.00915
O -7.87806 -5.4843 -3.12026
O -3.09921 -3.65198 5.96856
O 0.469287 7.35829 7.34822
O -0.0460171 0.0409152 -2.76693
O -5.18526 3.66804 -8.84544
O 7.79252 7.2262 -3.19051
O -1.1616 -7.16749 -3.64205
O -10.0278 2.67558 7.00638
O -8.88103 -3.90173 8.97887
O 7.9323 3.77846 -6.81066
O 2.80436 -8.01842 1.54066
O 0.623592 -0.777468 6.44067
O -8.16171 -9.61605 5.16484
O 5.75223 -6.05304 4.90748
O -7.8045 3.83196 -8.13932
O -4.07632 -10.0744 -3.27254
O -0.642985 -3.22222 6.67969
O 5.9972 -0.400607 5.37853
O 0.874321 0.761799 -8.45728
O -7.72923 -4.86549 2.03753
O -9.53023 8.88988 4.98001
O 7.80962 9.13819 -7.92652
O 2.31289 -6.73853 -8.61528
O 9.75089 8.77205 3.2499
O 6.87517 9.39137 -4.17806
O 5.68356 9.93077 7.6866
O -1.28504 -1.1461 0.85258
O -1.93879 -6.13914 -5.93804
O 4.02879 -0.606397 1.32586
O 6.46673 -10.4227 -6.34432
O 3.72292 3.41114 7.70507
O -6.80162 2.26752 5.5433
O -2.92087 3.85211 -7.5432
O 1.93412 1.42683 7.37906
O 10.1342 7.75934 6.94229
O 6.58862 -1.76773 1.18892
O -3.35242 4.60762 -0.526379
O -3.13508 4.63549 4.98941
O 9.17755 -0.993084 9.20623
O 3.41415 -10.2047 0.49063
O -0.643093 1.54598 6.57787
O -9.67706 0.815423 0.756982
O -7.40829 -3.13171 -2.29358
O 4.22703 0.748221 8.56203
O 4.60519 -3.77969 6.31765
O 6.23617 -6.26365 -4.87969
O 4.65155 -5.48263 -8.97323
O -8.20657 -1.01012 5.07925
O 2.90017 -2.79941 -2.01323
O -3.81155 8.63033 -8.16266
O -5.78524 4.40754 -1.56127
O 6.15379 -9.87988 -8.76182
O -10.1049 1.08087 9.10178
O 3.6299 1.73636 -4.43074
O -2.11445 9.40298 -2.64942
O -8.54971 -7.23686 -5.10267
O -4.10808 -6.81628 8.84828
O 6.30733 5.13718 -2.69585
O -0.418425 -9.56046 -2.40891
O -6.31923 -9.7009 -1.92067
O -1.66967 8.9535 -9.83435
O -0.373521 -10.5043 3.9582
O 3.71108 4.77926 5.54339
O 0.566441 0.308312 -0.184491
O 4.48759 -7.94719 -7.87669
O 1.08917 4.69399 -3.34969
O 4.2246 0.442448 3.70766
O -0.611686 -5.72869 0.43882
O 10.0609 -9.06021 6.066
O -3.50617 -0.129282 -2.01101
O -2.50837 2.35126 -1.30132
O 0.315311 2.55403 -1.72212
O -10.0872 3.26482 0.163485
O -9.12798 6.34198 9.30441
O 8.37142 -8.56311 1.35949
O -5.95976 -10.263 6.41723
O 5.59104 7.75486 6.38562
O -8.78721 -2.83324 2.99462
O 7.70519 6.71533 7.73919
O -1.21938 2.04219 -7.21082
O 9.86409 -8.24124 -0.756178
O -9.46279 -4.88735 4.26339
O -2.67895 0.0245556 2.8474
O 6.27918 5.87784 1.39873
O -4.89252 -4.27465 8.47346
O 6.07359 7.46493 -7.74332
O 4.86834 -3.91343 3.85474
O -4.1917 5.99324 -8.71468
O -0.362546 6.513 -4.50466
O -5.69586 3.22906 -6.44619
O 8.49141 6.22082 -7.56106
O 7.29911 8.12171 2.90581
O 0.259838 9.00628 -1.65052
O -5.58535 -3.43619 6.06955
O -9.11697 -3.03689 6.01028
O 6.69893 -0.201671 -2.34654
O 9.72368 10.3633 0.343273
O -4.26496 -3.22216 3.68853
O 0.820022 -1.43313 2.11499
O 3.31542 -9.52891 -2.16606
O -1.56203 10.1182 -0.404355
O -5.70537 3.78877 0.784658
O -5.60794 -7.7542 -3.29141
O -6.14876 10.1411 3.95901
O 0.216458 3.00311 2.8017
O 9.07724 -4.13747 -0.358648
O 2.99048 3.8231 -6.12127
O -6.51358 -10.4004 -5.53875
O 2.88508 1.33605 -6.78323
O 9.14823 -0.663488 1.3655
O -1.59856 5.59812 6.81171
O 2.14945 7.73641 5.53151
O 4.90632 8.56512 -5.77275
O 2.49889 3.27069 3.92297
O -2.89568 0.275149 7.32095
O 8.99877 7.89319 1.06949
O 8.20608 3.65305 3.8398
O -3.03283 6.20443 -5.02542
O 3.66206 -1.35496 5.55543
O 7.9473 -2.82471 7.79602
O 3.46081 8.41394 -7.9555
O -2.55348 9.64333 -5.20318
O -5.92259 -5.55304 -5.26207
O -2.3972 -10.481 5.49735
O 1.74826 -5.80627 -6.17217
O -7.41127 -1.81239 -4.47457
O 6.71882 3.60037 0.503944
O 2.22465 1.33433 2.37422
O 3.85654 -0.607004 -2.99657
O -5.40731 0.888625 -5.66409
O 9.89437 4.76011 5.45531
O -10.3258 -0.371117 -4.22159
O 8.60501 -9.35198 -7.66115
O 0.32006 -2.4493 -2.67233
O -2.59907 -4.97301 -3.31425
O -4.47806 -0.0102621 -8.00936
O 0.591074 -7.10569 -1.64497
O 3.68799 -0.429795 -8.31546
O 6.72514 -4.74484 -1.08209
O 6.4091 -1.03766 8.87732
O -9.63397 5.41778 1.84808
O 1.11738 9.65878 -9.07921
O 5.1975 -2.87126 -8.05055
O -3.25113 0.452906 0.427353
O -8.29641 7.22316 -1.71579
O -3.72494 -6.80686 -4.3816
O 4.50053 -10.2861 -4.45879
O -6.97771 -9.18507 0.450174
O -2.63828 -4.99208 -8.00582
O -8.31164 -0.514648 -2.54221
O -0.342349 -6.55087 -7.83517
O 2.85679 9.04746 -1.36923
O -8.96325 7.86402 2.60593
O -8.11978 -9.60244 9.03469
O 4.84192 1.5656 -2.07272
O 0.912031 -4.52914 -1.35946
O -8.99622 10.2543 -4.68055
O -9.73465 -8.17493 4.0991
O 7.31244 5.66457 5.40976
O 10.3473 8.14859 -1.0966
O 3.57854 -10.1826 -8.71183
O -7.0511 -0.846936 2.79004
O -4.00633 8.79506 4.4855
O -6.33741 -7.96766 8.2659
O 7.05352 2.52796 -2.20379
O 8.35404 -4.79391 -5.42016
O 4.45523 -6.2357 -0.0043302
O -8.92183 8.80968 9.86249
O 7.34576 1.24561 -5.93669
O -10.3172 5.74084 -0.60163
O -8.71462 -8.05885 6.88863
O -8.87315 3.62489 9.13433
O -9.75121 -0.513375 3.00304
O -3.09348 -3.28446 -6.06326
O -2.51771 -9.6405 -6.98351
O -4.61257 -1.65477 8.2113
O 9.65448 7.62808 9.49906
O 8.54827 -3.22972 1.99246
O 7.68537 -7.8608 5.06345
O 10.3346 -9.80559 -2.86297
O -5.00591 6.24988 0.302901
O -9.9937 3.65244 -3.68255
O -8.24215 6.079 4.13588
O 1.31831 -8.21919 -6.70082
O -7.65155 -1.85668 7.75582
O 9.90678 -2.81341 -4.68442
O -7.76408 2.38958 -0.452703
O -6.62545 3.76521 3.37306
O -0.262848 -10.1174 -5.61368
O -5.12835 -5.89015 6.15683
O 4.3668 9.95375 5.41235
O 5.34431 10.1696 -1.24779
O 6.58588 -5.22925 -7.25016
O -3.65658 -1.80488 -4.0276
O -0.870933 2.28083 -9.70388
O 5.58471 10.0546 3.09698
O 6.90866 3.44218 -4.58058
O -7.59183 1.52178 3.31708
O -2.8262 4.03543 -10.0572
O -1.24172 3.6216 0.626575
O -5.88036 8.29672 -0.720487
O -9.29608 -1.668 -6.14473
O 5.49014 -2.52448 -3.10647
O -6.92859 -4.99066 -0.565301
O -2.38331 -4.80446 8.09201
O 8.85705 -4.62888 -2.88961
O 8.33657 -7.12665 -6.26332
O -7.67447 -8.61585 -7.09967
O -6.32405 5.41701 5.95542
O -6.86477 5.33063 8.45287
O 8.42997 -5.87909 1.5625
O -1.06878 -8.11589 4.94906
O -10.3851 4.64972 -7.52899
O 9.50745 -3.77641 5.67501
O 0.838443 8.27042 3.1688
O 3.30257 -9.88814 3.21587
O -3.18531 -10.3756 1.43439
O 4.37076 -3.13935 1.44183
O 7.84553 -2.55618 -2.21244
O -8.37878 -6.68114 8.9579
O -1.02823 6.28593 -6.92118
O -3.51135 -5.8217 -1.02661
O 1.97761 -3.04063 6.59296
O 3.72732 -5.3727 -4.27002
O -2.65893 -4.4608 1.80072
O 7.55695 5.88996 -0.734951
O 4.0041 6.12668 -6.95483
O -5.02678 5.65277 -3.50239
O 1.46411 7.12127 -0.227313
O -6.26991 -6.71539 1.17611
O 8.30209 -1.48356 5.74409
O -3.48038 -2.38168 -8.24854
O 2.34536 -3.3766 3.01095
O -8.89721 3.43699 4.80841
O -7.49855 8.33812 -5.73541
O -3.58845 -2.98417 -1.80564
O -1.18965 -1.66478 -4.65101
O -5.29783 -4.22627 1.56271
O 9.54054 1.5818 2.66794
O 8.20822 9.28461 8.00839
O -7.06632 5.80831 2.03987
O -5.68143 -1.35743 -2.39964
O 4.51142 4.93207 3.0352
O -1.83646 -0.0116823 -8.624
O -10.3028 -4.66716 1.75607
O -1.17397 -6.14008 3.147
O -0.630992 4.90701 -9.19959
O -9.1473 -1.41739 9.68749
O -7.12992 -4.92219 7.5342
O -9.23582 10.5006 2.82627
O -2.84559 -0.854504 -6.38526
O -4.99307 -8.74101 2.2598
O -3.34317 2.49541 -5.56397
O 8.99214 -0.824962 -6.23526
O -9.65092 -5.29528 6.9202
O -2.99406 -7.54128 -8.03661
O 7.00975 -3.84379 5.49525
O -5.44443 0.637089 7.1023
O -5.19126 2.97989 -3.88841
O -5.83006 3.26406 7.59109
O -1.93277 8.07831 6.10688
O 1.23543 -10.4244 1.79999
O 6.52775 1.1674 -0.0387895
O -7.34293 -3.50052 -6.4089
O 9.50437 9.22544 -4.41489
O -1.10912 9.19764 1.83528
O -7.93968 9.71572 -0.90448
O -5.29332 -4.72487 -2.42446
O 8.10514 1.01527 4.65999
O -9.83332 -7.22215 -2.90584
O 7.57317 -9.3372 7.18347
O -7.41266 4.00066 -3.67899
O 5.24493 -8.65751 4.51053
O -0.151218 -3.8811 2.2902
O -4.19374 5.17739 7.36092
O -4.44141 4.99475 2.75352
O 2.02111 10.2877 -6.7582
O -7.68118 -5.97058 -7.04753
O -3.28663 -10.1108 -9.32856
O 3.36337 8.43586 7.5126
O -8.75748 -8.89242 -1.46538
O -2.43508 -9.08709 3.2785
O 8.68512 4.44027 -2.98439
O -10.0731 -8.56378 1.53766
O 6.16355 -0.743455 -7.00387
O -4.12944 9.16661 7.00909
O -6.25007 7.63114 4.45685
O -1.533 -5.55204 5.71466
O 1.50183 7.14193 -2.78237
O -5.06751 -9.40475 -7.73501
O 0.804632 5.08809 1.39271
O -3.38209 -6.87658 4.50892
O -6.54835 9.47439 8.593
O 4.23732 -7.84558 -4.10537
O 2.21447 5.85901 3.69402
O -7.69161 -8.36778 2.68195
O -5.02366 1.85618 -0.807367
O 7.75053 7.792 -5.78123
O -7.0471 8.95882 -3.28943
O -6.63067 -2.728 9.7875
O 4.80763 7.5083 2.58002
O 2.08029 -9.31012 -4.51574
O 2.80027 5.9841 7.56623
O 0.220003 7.38809 -8.86452
O -3.07261 -7.63449 0.99839
O 7.76614 -1.09218 3.40546
O -10.2674 6.21534 -3.07778
O -6.21596 7.51884 -8.09977
O -10.1307 -5.25579 -4.49884
O 3.9126 -1.62724 -6.13008
O -8.75863 3.60399 -5.83821
O -10.1641 -7.55955 -7.20749
O -10.0097 7.18771 11.6966
O -1.69884 4.79366 2.72496
O 1.0369 -2.16188 -0.273345
O -8.97398 9.51714 7.52375
O -3.60772 -2.03206 1.4541
O 3.97817 -1.85094 7.97088
O -2.88847 1.19287 5.17461
O -4.98204 0.765217 3.39713
O -4.64057 -9.75822 8.60485
O 1.65094 4.67636 -0.884293
O -7.84708 1.59943 7.81779
O 6.96556 1.93092 2.45368
O 4.61131 1.86884 1.54431
O -4.12786 -8.04704 6.75832
O -5.55095 -7.92248 -5.85097
O -3.32953 2.72093 3.1657
O 6.78932 -7.05358 0.0587813
O 1.4249 5.48143 -7.54833
O 8.89442 6.28541 3.49098
O -3.32499 8.30388 0.335747
O 5.8866 8.91433 0.812806
O -5.29233 8.40903 2.04936
O -8.0201 6.03213 -6.8895
O 2.2877 -3.39143 -5.3244
O 0.471816 -2.45316 4.44163
O 5.39402 5.45355 7.35589
O 7.83511 9.02848 -0.938756
O -6.25037 1.21539 1.22534
O 4.85522 -1.78728 -0.812414
O -8.57471 1.59415 -3.98773
O 3.55611 -5.60751 2.34934
O -0.581513 4.02243 -11.641
O 3.47421 5.78246 0.942576
O 4.13858 1.2871 6.1376
O -5.82875 -8.25923 4.91577
O -4.31402 8.25445 -3.85584
O -2.68168 3.03576 7.00376
O 1.92625 -6.00288 0.320311
O -0.0454844 6.68855 4.95718
O -4.16372 -1.35693 5.77229
