597
Atoms. Timestep: 1790001
Si 9.89204 -2.93504 9.20711
O 9.85967 -2.86782 10.9003
H 9.16432 -2.36598 11.3092
Si -10.008 3.64459 -10.0408
O 10.4451 2.66934 -11.3377
H 10.4534 3.08759 -12.1907
Si -9.576 6.77338 -10.6394
O -9.71549 7.39571 -12.2522
H -10.4072 7.0425 -12.7992
Si 2.08153 2.34285 9.49785
O 2.63138 1.48912 10.834
H 2.82943 0.587734 10.6086
Si 6.29013 7.71141 -9.65895
O 5.87782 8.04969 -11.3397
H 5.34227 8.83043 -11.418
Si 2.53678 9.06376 8.20001
O 1.88996 9.56466 9.6412
H 1.81917 8.90591 10.322
Si -1.00624 3.00791 9.95088
O -1.10854 2.65163 11.6596
H -0.291805 2.85147 12.1018
Si -3.44938 -0.745651 -8.07104
O -3.161 -0.864924 -9.75111
H -2.59444 -1.58161 -10.0116
Si 10.4512 -6.03281 8.70107
O 10.2333 -6.65374 10.294
H 9.59012 -7.35264 10.3128
Si 3.2852 -9.08212 7.22621
O 2.9329 -8.3196 8.7094
H 2.73535 -8.9174 9.42081
Si -5.58602 -8.31661 -7.90434
O -4.97887 -8.1221 -9.51615
H -5.12107 -7.27534 -9.92269
Si -0.354148 -0.467688 -7.54882
O 0.209984 -0.73865 -9.14708
H -0.361731 -0.36005 -9.80458
Si 5.75711 4.53745 -9.26777
O 5.16731 3.86373 -10.6414
H 5.84321 3.35157 -11.0696
Si -6.37895 -5.3428 -7.86762
O -5.64402 -5.31482 -9.39515
H -5.70711 -4.48117 -9.8463
Si 2.0829 -5.92861 -4.93489
Si -5.36431 1.57572 -1.02073
Si -6.12391 -0.669976 -4.69961
Si -8.78155 1.68816 3.92922
Si -0.890233 -0.368419 0.739595
Si -6.53776 9.27056 -5.31279
Si 8.08684 -8.71723 -6.31324
Si 6.93332 3.40575 7.69561
Si 3.83211 -4.98754 5.90505
Si -4.37641 -8.17471 1.71965
Si 9.80942 3.84694 7.76473
Si -2.04425 4.56471 0.912307
Si 0.651868 1.4775 -5.76206
Si -3.91447 -3.57624 -1.8825
Si -1.40394 -3.4064 0.0168035
Si 6.82932 4.3213 2.85353
Si -5.66181 3.8683 9.09685
Si 1.85813 -1.06731 -5.4662
Si -0.895777 2.19532 -0.975619
Si 2.26196 -7.37024 -7.85715
Si 8.16938 7.87051 7.13071
Si -5.5386 1.40252 -6.94424
Si -6.90327 -9.31914 -3.63121
Si -9.55633 -4.9585 -7.60108
Si 4.96311 -8.64346 -7.04022
Si -6.50371 -3.29568 7.3215
Si 1.93259 3.26652 -0.501574
Si -0.322979 9.55989 4.17142
Si 1.31344 -4.07989 -0.968264
Si 7.12686 -4.7443 -8.07591
Si 2.31443 -8.00058 2.48787
Si 4.2906 -5.4993 -8.16948
Si -4.51521 -1.11832 8.0442
Si -8.0811 6.72085 -5.95024
Si 0.521994 9.36472 -3.73166
Si -9.93395 6.53269 7.78385
Si 6.88628 -2.3323 2.37998
Si 8.83495 -2.82317 4.91428
Si 9.71829 -4.26188 -0.551109
Si -0.94433 -8.83605 5.45257
Si -0.867518 3.56011 3.63086
Si -2.83008 5.19701 8.78438
Si -8.82494 -1.10396 7.91098
Si 9.8839 -9.7712 -8.4009
Si 9.2295 -6.94512 -8.30193
Si -9.24216 7.93022 -1.80774
Si 5.17441 7.23394 8.13808
Si -10.076 -6.44432 -2.47571
Si 2.12648 -3.64714 2.13019
Si -8.54247 -4.98724 -4.78228
Si -6.90762 -1.41463 3.13187
Si -5.58168 -8.05304 6.19327
Si -6.10109 2.65808 4.03178
Si -6.67525 0.878924 8.8299
Si 7.88873 9.27752 0.595389
Si 9.52982 5.65438 -1.75738
Si 1.46698 4.53548 -5.03379
Si -1.64498 0.459976 3.67276
Si -8.32547 3.6513 -5.0941
Si -4.86737 -2.9818 -6.34689
Si 3.7017 5.88273 5.97466
Si -8.07732 -10.2631 -7.59733
Si -9.21036 6.64874 4.66239
Si 1.73648 9.94006 1.98829
Si 7.73247 0.805458 6.28024
Si 2.04827 -7.01596 -0.460324
Si 4.6468 -7.48764 -4.2106
Si 4.97673 -4.71399 2.85357
Si 8.30175 3.66178 -5.22969
Si 7.96572 1.83824 1.93805
Si -6.61961 5.33526 5.44252
Si -2.58048 -8.1699 -2.39012
Si -8.42114 2.14827 -7.83637
Si -3.87987 -0.443987 -2.61568
Si 1.63152 -7.17994 5.39478
Si 9.1903 -6.51848 1.33336
Si -3.95637 6.57411 5.08568
Si 7.86411 5.1248 5.70461
Si -9.86827 -1.29526 3.57814
Si -3.5029 -10.2647 6.61065
Si -0.910577 -6.7681 -4.71775
Si 4.54307 -8.71663 -1.35655
Si 4.5641 9.30979 -7.49888
Si -9.37455 -8.15532 0.115289
Si -0.626548 -0.728828 6.17312
Si -1.1889 6.75364 -1.03325
Si 4.68821 3.78748 -1.84857
Si -8.45323 -5.86888 4.14251
Si 9.29621 8.4709 -8.90757
Si -1.63407 1.276 -3.91486
Si -3.0666 -10.029 -7.13726
Si 9.99466 0.370695 -7.81647
Si -4.52153 8.3887 -7.58741
Si 2.32107 0.199481 6.98147
Si 5.29535 -2.2138 -1.95963
Si 7.1551 -7.41155 -0.919719
Si 8.52652 6.40147 1.06091
Si -3.01812 6.2176 -5.93719
Si -4.29639 -0.79799 4.80084
Si -0.0260449 7.14319 -5.74644
Si -6.70764 6.35935 1.01129
Si -8.89305 -1.98285 -4.04345
Si -10.2235 1.31828 6.52211
Si 7.15679 -4.50622 -2.16226
Si -6.30656 -5.00822 -0.513108
Si 9.1024 -0.907784 1.21282
Si 2.51854 -1.57339 -2.55721
Si -6.09698 -4.38591 2.59222
Si 5.58915 -7.38577 6.34939
Si -1.78601 -7.49238 2.68031
Si -7.00286 6.5233 8.44024
Si -6.48891 6.59875 -2.13727
Si 5.17669 9.26428 -0.639082
Si -7.25801 7.93075 -8.76843
Si 8.51319 3.05266 -8.37166
Si 4.2305 4.30362 8.50133
Si 8.74794 -10.4825 5.53047
Si 7.42837 -1.87156 7.65428
Si -0.651141 -4.49296 2.96034
Si 5.65777 -0.390476 4.28592
Si 8.14686 6.68657 -4.31728
Si 4.11046 -0.197579 -0.302681
Si -3.33571 -5.02951 -4.61713
Si -3.60486 7.447 -3.11267
Si -9.73642 9.68023 3.74491
Si -5.93451 -6.68854 -5.30587
Si -3.58108 3.29508 -5.35026
Si 3.09517 1.38856 4.23896
Si 6.35811 -4.86189 -5.04007
Si -10.3381 3.03198 1.69254
Si -10.1 9.79835 0.542391
Si 6.963 0.0998589 -3.32573
Si 8.90635 -8.5696 -3.33481
Si 4.42911 -2.16113 6.74686
Si 0.877192 7.35699 6.08368
Si 6.7405 -10.3313 3.12282
Si -7.30361 -8.031 2.35766
Si 2.09164 3.62399 2.57552
Si 9.30926 -1.00042 -5.19266
Si 3.63559 -3.47163 -5.79931
Si 5.4626 2.41476 -4.55316
Si 10.4223 2.92962 -3.00261
Si 0.629206 9.38988 -0.673085
Si -2.41093 10.2901 -4.05357
Si -1.38239 5.26317 6.06522
Si -5.06383 3.72632 1.33685
Si -2.4675 0.922146 8.0049
Si 8.63369 -7.69562 6.66988
Si -5.16117 2.08422 6.76977
Si -9.89908 10.4425 -3.69809
Si -0.533506 -8.7021 -0.0442336
Si 2.02311 -0.557856 2.03538
Si -4.20567 7.8687 7.91867
Si -10.322 0.895718 -0.654959
Si -5.33685 -7.9132 -1.24259
Si 9.45329 -5.83399 4.18597
Si 3.98833 6.87835 -2.37397
Si -5.84946 3.66818 -3.3146
Si 5.10363 7.11505 -5.24795
Si 5.39727 -7.67787 3.1463
Si -7.75146 -6.09254 7.29779
Si 6.55934 1.82711 -0.893354
Si 1.3446 5.66425 -2.11782
Si -5.30639 8.37788 2.97056
Si -2.37471 -3.13298 5.23339
Si 4.2908 4.30335 -6.47822
Si -7.40854 -0.44744 0.187577
Si -4.70374 -4.98556 5.26566
Si 9.42205 -2.61158 -7.7496
Si -9.77629 5.93528 1.86517
Si 4.07207 5.66506 2.971
Si -0.22902 -8.79131 -7.16733
Si -6.96837 -10.3001 4.28248
Si -8.58237 -3.06871 -1.03554
Si 4.40235 8.81097 2.43716
Si -3.31797 10.4282 3.44847
Si 1.54915 9.62939 -6.47411
Si 10.1635 8.43491 -5.78322
O -8.59317 -3.35236 -4.80581
O -8.01198 -0.0212015 8.85184
O -1.1563 -3.87694 1.51119
O 9.12144 -6.92443 5.31643
O 1.5988 9.71015 -4.84619
O 4.89371 -1.56749 -0.534343
O 6.70676 7.70463 7.97379
O 0.637734 -7.80941 -0.635058
O 4.31298 7.24135 2.74867
O -9.06517 -6.35356 8.14486
O 5.75428 -8.06417 -0.556537
O 8.558 5.28129 -5.13193
O -6.05925 4.92575 1.37699
O -1.06339 -6.09228 2.88237
O -3.6969 9.47656 7.63061
O -2.63587 7.08162 -1.8815
O 0.725213 2.44589 -1.03014
O -5.72713 -7.62864 2.2995
O -8.23899 5.22832 -5.44861
O 3.05368 9.52545 2.79389
O 3.40599 3.16701 -1.14075
O 2.09417 3.01124 1.08545
O 9.89788 -9.81886 -3.09752
O 2.1231 0.461246 3.28471
O -5.06605 5.4608 5.23621
O 8.35061 -3.80572 -1.32259
O 3.98357 8.29906 8.51977
O -4.41329 7.2737 3.73706
O 9.09385 7.89175 -4.78663
O -8.53599 7.00203 8.46654
O -2.4687 6.03652 5.07542
O 4.52644 0.710826 4.15436
O 2.99826 3.57452 9.29136
O 7.33472 -4.41291 -3.79141
O 3.89899 -8.15675 2.79927
O -0.8943 4.08523 5.12402
O 2.14819 -2.1088 2.55545
O -10.3851 -6.14648 -8.27748
O -6.96028 5.77876 6.93677
O -7.02097 -9.55622 2.86992
O 2.14392 1.19471 8.32917
O 6.8408 2.70922 2.69587
O 5.84591 0.863481 -4.28108
O 7.50339 -10.1425 4.55432
O -2.56285 0.0361985 -3.41166
O 4.60528 -4.71464 4.44943
O -9.70772 -9.69817 0.105897
O 2.25357 6.64071 5.64911
O 2.47034 -8.36983 6.08952
O 8.88161 -9.91503 -7.07626
O -9.99969 -5.55575 3.96917
O 4.88852 -6.82644 -7.43948
O -10.4934 2.45124 7.63987
O 8.03556 -5.93708 -8.55324
O 4.65544 6.90763 6.62547
O 7.35892 4.59625 4.35851
O 6.90241 3.20401 -4.67873
O 4.70323 8.91314 0.842668
O -9.4885 -5.29779 -5.96146
O 4.99641 -1.52283 5.28875
O 10.229 -2.10593 4.61464
O -3.87102 -1.99736 -2.37949
O 1.72761 -3.71447 0.577788
O -5.20586 -2.54352 8.03209
O -4.21115 -2.01492 -7.41883
O 0.91869 -4.34077 2.98497
O 3.33347 -8.58128 -7.76033
O -9.50426 0.929465 -7.9651
O -7.63928 10.2053 -6.14733
O 2.80619 4.53784 -5.89587
O -4.49323 -6.19174 -4.89118
O 5.55261 3.3043 8.48029
O -1.33751 2.09189 -2.52182
O 0.748579 8.24645 -6.65739
O 6.00111 3.31027 -1.09471
O -5.32721 9.0148 -6.33394
O -1.53799 5.92835 0.220368
O -2.95774 -9.51406 -3.14077
O -3.776 -3.73849 -5.47052
O -1.68481 -0.118129 2.12159
O -3.13283 0.174126 4.2656
O 1.73224 -1.32532 -3.88602
O 2.6751 5.12572 2.46762
O 0.547625 2.90406 9.65747
O -10.0059 -1.95169 8.69714
O -6.13756 7.57585 1.85818
O -2.92211 4.60753 -5.93423
O 7.74089 7.75307 1.04554
O -7.89958 7.30467 -2.36517
O -7.28144 -0.553453 1.80631
O -3.69009 -9.23955 2.67239
O -9.25517 3.25484 -3.81044
O -1.58498 4.34802 2.42986
O 1.06352 9.46481 -2.23503
O -5.76334 -3.98366 5.98848
O 3.96935 -2.12128 -2.84574
O -7.76532 -4.4544 -0.920062
O -9.02901 -5.73228 -3.47928
O 8.76146 5.82402 -0.362915
O 3.49027 -0.983932 7.24993
O 9.03789 -2.20081 -6.23339
O 10.1118 -4.43529 8.66096
O -5.17336 -0.167257 -3.51995
O -5.74903 -0.854106 4.09963
O -1.89155 -0.730467 -7.51227
O -6.26166 10.3008 -4.09943
O 9.84902 -7.24915 -3.31141
O -5.9775 -4.88891 1.06289
O -0.336133 0.858408 -4.64776
O -9.26652 2.64075 2.77254
O 8.36981 3.59813 8.44829
O -10.3796 9.83222 -5.11815
O -3.54969 6.55974 -4.43157
O 8.41927 -2.37103 8.83001
O 5.66343 -4.82373 -8.73503
O 8.13191 -8.75043 -4.71286
O -9.63164 9.19141 -2.73144
O 6.73548 4.73836 6.86622
O 0.672525 -10.0809 -6.83152
O 9.6878 3.80163 -9.08768
O -2.71534 -10.3823 -5.60417
O -8.80611 0.247434 -0.318242
O -4.51295 -0.760117 6.37028
O 0.526293 -1.26404 -6.46693
O 9.60085 7.41519 7.93263
O 9.03815 -9.15645 6.36937
O 8.56362 6.18232 -2.88218
O 1.47994 4.8024 -0.74461
O -7.09825 -4.70377 7.94571
O 5.71246 -6.25767 -4.48605
O -6.26766 9.28492 3.98335
O 6.7462 9.46365 -0.514733
O 8.94165 -4.4113 4.74775
O -5.66868 8.06706 -8.67656
O 6.04347 -3.64072 2.37053
O -5.50696 -0.209168 9.01548
O 9.45463 -8.37521 -9.029
O -10.3625 -1.36582 -4.36351
O 8.45444 0.352019 2.03087
O -7.69884 -2.1435 7.31013
O 3.59954 -4.2512 2.20885
O -6.2945 5.10844 -2.70772
O -4.97079 -4.7813 3.69666
O 6.65602 -8.39723 -6.83206
O 2.97793 10.3799 7.39188
O -8.5441 10.4474 4.51997
O -7.59484 6.97331 -7.46184
O -0.185406 5.99152 -1.95882
O -6.82767 1.77055 -7.78128
O 9.63081 8.38448 -7.37117
O -1.70268 -8.23148 4.15244
O 9.23991 2.77746 2.34277
O 5.91602 -1.14571 2.83123
O -9.83434 5.76622 3.49691
O -6.4357 6.53205 -0.518925
O -5.52148 3.49718 7.50943
O -4.76064 -8.54355 0.1805
O 9.33205 0.892823 5.95311
O 10.0172 4.18653 -2.14244
O -2.82215 -3.71115 -0.654301
O -9.53727 7.43317 -5.77281
O 1.57639 4.81057 -3.40922
O 6.64204 7.00801 -4.69859
O -5.23338 2.49317 0.317793
O 3.20409 -6.79425 -4.10499
O 5.11986 -3.75242 -5.20887
O -7.23328 1.63113 3.77354
O 1.4893 8.1552 7.40626
O -7.9022 9.44221 -8.57417
O 3.00544 -6.21097 -8.84088
O 5.12136 -10.2269 -7.49104
O 8.13613 -7.29085 0.376161
O -6.39856 1.22144 7.27256
O -0.956065 -8.40052 1.54462
O -1.22142 0.832275 -0.229038
O 4.53349 5.40563 -1.96453
O 5.60238 9.57064 3.18111
O -6.02257 0.456102 -5.78479
O 5.4513 -7.53585 4.74475
O 5.30391 4.8402 2.39393
O 4.20234 5.40938 4.53827
O 9.7324 0.229551 -6.23473
O 10.2335 7.54353 -9.78636
O 0.650883 -0.368606 1.18599
O -3.49113 -4.50097 -3.06364
O -1.68534 -9.25971 -7.64091
O 1.94159 0.53143 -5.61969
O 1.66514 -7.49523 3.8246
O -10.3358 6.8082 -1.71289
O -1.81456 -8.34793 -0.974701
O -5.1213 2.10312 5.17457
O 7.16055 2.18926 6.71271
O 10.2431 -5.28705 -1.62134
O 2.91152 -0.353883 -1.4948
O 2.54375 -4.38812 -4.95923
O 10.4707 1.57773 -2.12065
O -5.91004 -6.80817 -7.06212
O 8.0512 -3.41408 -8.27691
O 0.786768 -7.89884 -8.0163
O -3.7921 10.4753 4.97479
O -4.35435 -9.04024 -7.2127
O -5.31297 -4.03228 -1.33033
O -9.45758 8.16618 4.19513
O 2.18119 -7.0224 1.17903
O 8.49281 3.28241 -6.78958
O -3.5099 -2.16477 4.56361
O 7.6426 10.2122 1.90024
O -0.572133 -0.310436 4.63183
O -9.2461 8.71117 -0.334325
O -5.72673 -4.15616 -7.08816
O 4.93113 8.32581 -6.29337
O -0.783533 10.3222 -3.91914
O -1.88135 9.73308 3.69995
O 7.07778 -7.41347 6.82731
O -8.55412 -9.59977 -3.65054
O 2.64143 1.19387 5.75332
O 10.0232 6.85674 1.49839
O 0.764282 3.05393 -5.32157
O -6.90667 3.88955 4.78223
O 0.00605802 7.85155 -4.2409
O 3.77542 -4.27277 -7.22145
O 5.87979 -2.31276 7.60803
O -6.72658 -7.32034 7.11356
O -0.383182 8.15809 -0.641326
O 9.04895 -7.5195 -6.77372
O 7.72135 8.16039 -9.17742
O -0.19301 -10.2136 -0.328207
O -2.31696 4.89363 7.26436
O 4.97425 -8.2727 -2.87919
O 4.78178 2.91952 -5.90024
O -1.43338 3.43714 -0.0874888
O 0.478291 9.46436 2.79016
O 7.0693 3.68259 -8.92509
O 0.0834815 -7.66919 5.89122
O 7.03952 -6.00592 -1.5985
O -0.141489 -10.0848 4.93961
O 0.164436 8.38016 5.08403
O -9.46665 0.246987 3.76558
O -6.07717 -6.50404 -0.978305
O 7.4731 1.88276 0.437048
O -1.52917 -2.08312 6.13925
O 4.80619 -8.6929 6.92078
O -7.019 -5.5945 -5.06131
O -7.60768 -2.00592 -0.243596
O -9.44322 -7.37382 -1.32531
O -4.68975 2.61511 -6.32774
O -6.29992 -9.21284 5.22996
O -4.41631 0.518912 -7.71197
O -3.4965 9.60996 -7.84787
O -10.4013 -7.22884 0.993667
O -1.24023 -1.77893 0.0173642
O -5.68979 7.51961 8.43475
O 7.29684 1.1371 -2.12579
O 7.93276 -1.9499 1.22468
O -1.31116 -3.79584 4.16816
O 0.539911 -6.08277 -4.48538
O -5.88054 2.61858 -2.16822
O -1.37233 0.508939 6.94171
O 3.23087 -0.162402 1.04524
O -1.79289 1.88901 9.09689
O -3.03412 8.92874 -3.60477
O 3.68461 -3.55805 6.58049
O -4.00433 0.812394 -1.51464
O 5.21775 8.55634 -8.85645
O 2.46711 -5.86727 5.72139
O 9.70368 10.0011 -9.38155
O 2.43684 6.88259 -2.06953
O 8.21537 -2.42583 6.31109
O 6.31631 -8.88841 2.65988
O 4.76473 4.36444 -8.03845
O -1.58529 6.9757 -6.03686
O -10.4216 2.01786 0.41111
O 8.07054 6.6954 5.99671
O 9.38724 9.5487 0.149099
O 7.76175 5.29002 1.97248
O 5.21722 0.933254 -0.62437
O -3.11469 -0.521775 8.51423
O 1.87605 -2.8555 -1.82001
O -9.57585 -9.76503 -7.84983
O -3.89543 6.95233 -7.04939
O -5.15455 7.37911 -2.6819
O -8.2852 6.36944 1.41969
O 1.8958 -5.57101 -1.1171
O -4.18491 4.47289 9.33057
O -8.33098 -1.86948 3.69586
O -5.16641 3.05643 2.81966
O -3.73896 1.72306 7.40504
O -3.26036 -4.3938 5.75489
O -8.71315 2.87477 -6.42201
O -10.3234 -3.595 -7.86766
O 6.04848 6.09698 -9.48802
O -8.83802 3.10228 -9.11884
O -10.3537 5.06331 8.276
O 4.10435 7.0515 -4.03446
O -0.183045 6.20612 6.39235
O -3.11772 6.85474 8.67018
O 5.54756 -6.18492 2.5648
O 5.80505 -3.70357 -1.8246
O 4.72699 2.98556 -3.26588
O -1.95478 -5.65847 -5.16668
O -2.42523 2.23729 -4.94691
O -8.02981 -7.97004 0.933994
O -3.13728 -7.15308 1.86559
O -9.75763 9.78801 2.1836
O -6.82644 3.34155 -4.53074
O 8.42959 9.31443 6.55407
O 4.54952 -8.49055 -5.43801
O -4.38935 3.60171 -4.04315
O -7.16614 7.80626 -5.1202
O -6.22757 -2.8035 2.49606
O -9.29578 2.10773 5.4321
O -8.71973 -2.49984 -2.48796
O -6.33877 0.351663 -0.555181
O -7.4906 -5.00768 3.22771
O -7.72842 -0.877886 -4.3299
O -8.18871 7.19809 -9.99192
O -0.597926 -7.85411 -5.84962
O -5.65752 -2.02287 -5.30416
O 2.93611 9.45129 -7.27523
O -7.96512 -5.0744 -7.92159
O -10.0881 4.52023 1.24417
O 8.15102 -0.515521 -4.2467
O -4.16399 7.46459 6.37617
O 9.37689 2.91653 -4.22923
O -4.45111 -8.95337 6.90792
O 8.97295 1.50244 -8.41132
O -6.62383 5.12793 9.27422
O -6.99023 -9.09161 -7.858
O 7.01115 -4.91312 -6.45702
O -6.49321 -8.06248 -4.73457
O 0.992855 -0.59647 6.56686
O 9.89908 10.1173 4.48854
O -9.50446 -0.0914354 6.8551
O 4.59904 -10.3152 -1.16081
O 8.79977 -6.41994 2.83214
O 7.49231 -0.318494 7.39555
O 3.21277 -7.98095 -0.931221
O -0.0157757 1.07816 -7.18959
O 9.45821 -6.92668 7.81888
O -1.25786 2.01933 3.65571
O 6.38355 -1.19165 -2.55421
O -6.35486 -8.78762 -2.2016
O 1.74172 -9.44574 2.04344
O 9.69845 -0.250804 -0.178532
O 6.91841 0.257936 5.00538
O -8.15417 -5.85192 5.72015
O -6.29023 2.35225 9.50848
O 3.08235 -2.0165 -5.85457
O 1.65922 9.37443 0.554693
O -1.70362 4.50596 9.64858
O -7.60355 6.35244 4.64485
O 9.72397 -1.17098 -8.34908
O 9.33729 -4.98887 0.840327
O 4.81113 5.81274 8.8607
O 3.06618 2.82551 3.60627
O 0.675462 5.76957 -5.58108
O -1.60638 -7.37158 -3.40382
O 7.89936 -2.42943 3.69105
O 9.20154 4.30863 6.2826
O -2.01951 -9.59268 6.46133
O 10.3794 -1.34251 2.16824
O 4.80602 -6.02305 6.66611
O -10.0873 -3.2283 -0.443251
O -0.272199 -4.07976 -0.953424
O 7.96374 -8.3014 -2.02355
O -9.67937 6.48721 6.17441
O -4.01765 -7.54937 -2.05698
O -4.23804 9.45618 2.55649
O -3.63978 4.41807 0.891546
O -8.15181 -7.31659 3.46967
O 2.12843 -6.53955 -6.46384
O -9.75359 5.1221 -10.6327
O 4.95111 5.61687 -5.94701
O 4.80807 8.06454 -1.65543
O 3.568 4.67186 7.07055
O -4.96207 -6.56513 5.58692
O 0.676578 3.55742 3.25814
