588
Atoms. Timestep: 1790001
Si -6.83872 -6.6866 9.36227
O -5.93832 -6.98233 10.718
H -6.07968 -7.84387 11.0925
Si -1.25491 -9.6179 -11.2253
O -1.41064 -10.3145 -12.807
H -0.646064 -10.2918 -13.3704
Si -3.43399 -7.29704 -11.1232
O -3.99711 -7.27286 -12.6709
H -4.94544 -7.2232 -12.6972
Si -6.22478 6.57321 -7.96329
O -7.08417 7.53185 -9.10966
H -7.25992 8.4107 -8.79463
Si 6.63373 -4.24503 8.97632
O 6.25257 -3.30218 10.2746
H 5.77113 -3.74915 10.9609
Si 9.32706 -5.80207 9.78945
O 9.25532 -5.95254 11.5405
H 9.86319 -5.40439 12.0227
Si -3.39119 5.4755 -8.64892
O -2.7022 5.47636 -10.2279
H -2.76182 6.28973 -10.7151
Si -8.95862 -4.26377 9.92899
O -9.23494 -4.02321 11.5976
H -8.56787 -3.54939 12.0803
Si -5.7282 8.59378 2.79426
Si 9.7167 -0.0512366 4.36629
Si -6.16628 8.26614 -5.16419
Si -8.24361 -3.85387 -3.30976
Si 2.54717 -5.49133 -9.06646
Si 6.22668 0.786257 -0.994282
Si -0.985705 -3.50067 -5.4012
Si -0.378942 1.35285 -8.22872
Si 0.974152 -7.85489 -10.0812
Si 6.32925 -1.65813 -3.15071
Si 8.2624 10.4638 6.58996
Si -5.81105 -9.31583 2.61246
Si 3.23148 4.87944 -5.45346
Si -4.28527 7.07149 0.310703
Si 0.539918 4.16081 -6.99635
Si 4.21907 2.574 4.34163
Si 3.29021 -2.0533 -2.33729
Si -4.83537 -6.52604 7.01129
Si -5.64256 -5.76997 -0.196503
Si 3.20861 6.69596 5.18774
Si -10.2119 2.36 7.6555
Si 0.346577 -5.79987 -0.845981
Si -7.37106 1.51057 8.30665
Si -3.57592 -5.25737 -5.15202
Si 4.23617 9.61528 0.887658
Si -4.33798 9.8438 -1.28709
Si 5.20964 -8.3733 -5.31906
Si 10.4377 -9.04111 -4.1812
Si 1.79665 6.45287 -3.04564
Si -2.23892 -7.37973 -6.66797
Si 8.60779 7.88046 -1.32081
Si -9.97519 -2.37414 6.10327
Si 0.577028 8.5023 1.14261
Si 3.48543 4.27274 1.68261
Si 1.67693 0.0855477 2.4706
Si -6.72772 -2.824 -0.787511
Si -0.747636 -0.539176 -5.64344
Si -1.11362 9.48222 -8.73114
Si -0.390012 -8.91507 7.80331
Si 10.3456 0.169903 -3.19807
Si -0.484385 8.00616 -4.57299
Si -3.79996 3.42256 5.9368
Si 3.06244 -9.56857 4.43688
Si 3.79705 -2.8293 -8.97139
Si 4.7547 6.83005 2.48927
Si 6.28025 -1.96449 -7.4166
Si 10.4316 8.57504 3.15421
Si 5.86188 -5.91393 -1.55388
Si 9.75091 -6.47211 -7.52076
Si 6.60203 -1.56264 7.36897
Si -9.09161 4.9939 4.65076
Si -8.81523 -6.50941 -8.98205
Si 1.12709 5.6806 -0.064929
Si -6.11036 -9.40071 -7.11571
Si -5.89365 1.32647 -6.73346
Si -9.57076 5.97733 1.78942
Si 0.336419 -2.35852 5.52983
Si -0.173906 -6.6189 4.73995
Si 7.74125 -4.47585 -3.62194
Si 8.78882 2.57545 -4.69999
Si 8.79211 -2.04363 1.99837
Si -4.23417 1.96463 8.47064
Si -0.990403 -3.2443 7.96492
Si -7.9364 -1.70279 8.34306
Si -7.31062 -10.1766 -1.8801
Si -7.76764 -8.0641 0.614418
Si -7.38557 2.08203 0.650507
Si 7.30414 3.61261 -2.05721
Si -3.6829 -4.64649 1.92815
Si -3.30271 9.30362 -4.1952
Si 5.95474 -10.4309 4.55433
Si 3.50367 1.53166 0.33081
Si -6.50221 9.48115 7.06424
Si -0.839615 6.71425 -7.55416
Si 7.52118 9.19449 -5.86822
Si -3.1593 2.49526 -7.76771
Si -6.51396 5.6378 -3.52414
Si 4.15691 -0.470847 4.12558
Si -2.964 -1.63344 1.38507
Si -0.991866 4.67945 5.00969
Si 9.11159 0.0460588 -0.256281
Si -1.62876 -10.1823 5.32633
Si -3.90255 7.52186 4.79872
Si -4.45493 -1.37879 -2.54081
Si 6.24575 6.57958 -2.69013
Si 8.61854 -3.77661 -6.63488
Si 2.3346 1.11832 -2.35045
Si -4.16256 7.84496 7.97181
Si 1.33029 8.95354 4.14041
Si -8.48009 -4.84462 4.68381
Si -1.51496 -5.89849 -9.30204
Si 8.00262 -3.32704 6.3739
Si 0.451144 -3.19849 -2.52854
Si 2.03777 -2.91046 7.71447
Si 9.41823 4.8521 6.50638
Si -9.32718 -7.75033 5.73952
Si -8.14271 1.62096 -2.32311
Si -2.80905 -0.677769 8.03946
Si 4.22881 -5.23374 7.27775
Si -7.97661 7.74037 4.76805
Si -7.29765 4.19134 -6.24887
Si -5.41264 -1.83372 6.4932
Si 3.78512 -0.470161 7.37673
Si 0.664426 -7.84011 -5.52757
Si 2.38947 5.17195 7.6751
Si -0.472149 6.17587 7.84837
Si -10.4364 8.07449 -5.58859
Si 5.74759 -2.92125 2.72959
Si -1.54369 -1.03911 -1.42074
Si -10.3359 -6.52541 0.192964
Si -0.24985 2.19902 3.87701
Si -4.74495 -9.37233 5.56193
Si -9.87919 -4.12352 2.14349
Si 7.68536 -7.63833 0.362258
Si -4.84864 4.66512 3.59451
Si -0.582495 -9.11959 2.84895
Si -6.07067 -6.93638 -9.24441
Si -10.2009 4.92566 -5.52841
Si 8.26842 0.979624 6.89943
Si 5.13314 7.31958 -5.72877
Si 9.88094 -8.30867 8.02027
Si 5.88237 10.4921 -3.33558
Si -0.783431 1.3398 -3.14741
Si -7.30856 -1.46958 -6.88945
Si 7.91585 7.47319 6.91404
Si -0.543528 -5.0608 2.04388
Si -2.00859 5.00031 -0.374462
Si -3.0575 -9.11793 0.953796
Si -1.82141 3.52755 -5.00144
Si -5.35891 -4.54762 4.67726
Si -0.302414 -2.12499 2.39853
Si -10.4586 -6.0635 -2.91435
Si 6.64946 0.497122 -5.5936
Si 9.55019 5.09737 -0.454294
Si 1.40291 -9.85806 -7.86443
Si 3.11999 -6.03189 -5.83536
Si -6.60995 5.17159 1.08159
Si 3.43041 10.0662 -5.88183
Si -6.65262 -8.12795 -4.27713
Si 0.587164 -10.0696 -0.851355
Si -0.390056 0.512266 6.40491
Si -3.77295 4.32176 -2.982
Si -5.2019 1.49389 -3.58448
Si 1.42362 -0.854938 -8.88436
Si 3.86965 -3.02297 -5.94135
Si 2.27425 -0.389776 -5.91195
Si -8.52293 -6.31477 -6.07857
Si 3.1735 -6.50078 -0.383391
Si -8.24169 2.05088 5.3929
Si -8.211 -9.20196 8.15394
Si -1.73372 -6.22076 7.53415
Si -1.50043 9.21244 7.88668
Si -8.05905 -1.59939 1.75214
Si -4.10907 -6.83 -2.77276
Si 5.221 6.02624 7.43514
Si -2.63981 3.10959 1.95947
Si -9.13261 4.61568 -2.56995
Si 0.0710901 -3.63336 -8.29801
Si 8.12084 -8.81494 -6.29737
Si -1.12313 7.29069 3.48338
Si 3.99169 8.42543 -1.95884
Si 7.0685 10.3972 -0.43119
Si 7.33035 7.85019 3.74059
Si 1.08702 -10.3196 -3.89326
Si -9.92513 9.35669 -2.73819
Si -1.75572 -8.00433 -1.39548
Si 2.37518 2.15776 6.96149
Si 4.32572 -3.73577 0.00244268
Si 2.19161 -7.60587 6.61143
Si 6.26812 -5.24623 4.91137
Si -9.99288 -2.04357 -5.38038
Si -3.29217 5.02253 8.54885
Si 6.62824 3.4683 6.13777
Si -7.34034 -4.3421 -8.01354
Si -5.74183 -3.19499 -4.80822
Si 9.97428 -9.54262 3.97885
Si -4.82597 0.849914 1.83689
Si 2.43082 -8.89088 1.48378
Si -3.18338 -10.2953 -6.93047
Si -6.56508 -0.0939988 4.11964
Si 7.30632 -7.84883 3.38531
Si -8.39625 10.2205 -5.93015
Si 4.02455 1.98106 -4.68003
Si -9.91013 1.02483 1.9016
O -3.63534 9.87375 -2.74888
O 0.197811 -2.31354 3.99094
O -6.02977 10.1091 2.37185
O 7.60034 7.33272 -2.47951
O 7.99903 -4.23718 -5.14623
O -5.83064 1.87573 8.85109
O -0.471127 7.39784 -6.09375
O -4.51486 6.05926 4.2819
O -3.53411 3.96168 -8.14193
O -6.8919 -6.78464 0.0464571
O -0.810941 -3.11054 6.35559
O -9.94227 8.42773 -4.08923
O 1.74217 10.4609 4.38041
O -7.90659 -5.42772 9.56208
O 6.55863 -10.4165 -1.94668
O -9.12464 -5.24097 -3.41417
O -8.85073 2.14129 8.57325
O -2.99155 8.8539 8.4124
O 2.49326 5.61419 6.09829
O -4.82493 8.61504 4.11675
O 5.15987 7.27031 -1.72738
O 0.291772 9.65306 0.112566
O 4.55588 1.05862 3.84829
O -4.68702 -5.5521 1.06528
O 6.63781 -5.46037 -2.92653
O -6.06467 -8.90062 -5.61215
O -0.615872 5.59514 6.31807
O -4.62379 0.15377 -2.95902
O 2.76406 0.662188 1.44018
O 7.55746 7.46666 5.33056
O -7.53215 -8.06366 9.02887
O 6.86623 9.7231 -4.41531
O -0.268977 -3.53873 1.76576
O 4.86049 0.826346 -0.202009
O -6.12002 1.30705 1.05895
O 8.49668 8.93873 7.17989
O -9.38946 5.25799 3.1783
O 0.865938 1.49609 6.86951
O 6.84407 -6.86316 -0.769482
O -4.91166 -8.07376 6.54
O 6.43604 8.08857 -6.41445
O -10.401 -4.82071 9.44882
O 5.00841 -5.17876 5.91438
O 3.78985 6.49662 3.72612
O -0.866578 7.86169 -8.67932
O -6.65394 -2.21098 7.59292
O 3.597 3.52506 3.1768
O -10.462 5.05517 5.39342
O 3.54625 -4.48295 -5.41066
O 9.1639 -1.35408 0.624346
O -2.19046 -5.21703 2.01285
O -2.35271 9.68866 -7.81107
O 9.57787 -2.98937 6.40184
O -5.30916 1.3438 -5.20853
O -5.05998 5.32632 -3.04336
O 0.398261 -2.08189 -8.56151
O -8.8149 -1.39035 -6.34062
O -0.677909 0.356322 -6.96265
O -0.65734 -9.27481 6.2524
O 4.37854 -10.4486 4.59527
O -6.84754 5.22405 -7.44405
O 7.98359 3.27243 -3.50587
O -3.57873 -10.2193 -0.182165
O -5.36742 -7.46575 -3.61104
O 3.17198 -6.49229 7.25612
O 1.23664 -4.64574 -8.75636
O -7.57307 -0.117154 8.55299
O 3.9292 3.02689 0.74202
O -2.59802 -7.92661 0.0341073
O 2.15753 -6.7352 -10.0597
O -7.37653 8.67079 5.91976
O 0.813941 -0.776702 -5.31304
O 6.72513 -10.4554 6.01556
O -4.17445 8.251 -0.754335
O 3.57083 1.91248 -3.10536
O 0.491912 0.417202 -9.2943
O -6.61267 -0.0387809 -7.15999
O 5.42854 -2.72922 -6.16269
O -9.76044 4.99949 -3.99803
O -0.0937628 -5.42278 3.54172
O -6.61383 7.12694 -4.10417
O 4.54917 -9.71658 -5.93931
O 9.28082 -10.235 5.32848
O -4.42632 -4.59688 3.3624
O 6.41562 -0.534747 -1.90165
O 4.55309 6.77817 6.12543
O 9.51953 1.43985 7.77615
O 3.30002 -3.01938 -7.42483
O 4.41897 -6.62603 -1.38357
O 1.68696 -6.54419 -5.44859
O -6.82858 -4.02631 -3.91303
O -1.18628 0.326366 -4.39967
O -2.93548 4.46749 -4.33087
O 4.48766 8.23179 1.81229
O 4.02805 3.51718 -5.0872
O 10.1828 3.81027 7.53161
O -4.85471 -4.35885 -5.50557
O -8.29222 -8.5833 6.63645
O 2.73585 -1.48973 7.95988
O -0.405959 5.22199 -0.270438
O 7.66132 -10.3309 -6.64379
O 9.58136 3.81126 -5.45299
O 2.74898 -0.451767 -2.44595
O -5.51076 -1.91566 -1.44786
O 2.4235 1.57185 -0.796973
O -0.800967 -7.83996 3.80632
O -6.6968 2.73457 -6.62438
O -10.3987 6.48313 -5.9517
O -10.1955 -6.32084 -1.34363
O 2.69314 -1.66268 -9.51619
O 2.51111 5.60835 -4.19188
O -7.74009 -7.15408 -4.96297
O 9.61015 -0.0552738 -1.7754
O -3.54886 4.19721 2.73653
O -1.45731 -1.96859 -5.59396
O -2.77206 4.6399 -1.75991
O 0.00292855 -8.64263 -11.1531
O -10.4652 0.951861 3.37974
O 1.61411 -9.09094 -0.0178834
O 1.67829 5.6784 -1.57279
O 6.54402 9.27929 3.85751
O 7.75977 -9.21817 0.0831655
O 4.0613 8.59933 -5.67995
O 0.555774 -8.82926 -4.25487
O -2.05055 8.29703 -4.15367
O 3.37833 -5.00654 0.289406
O -3.97153 6.43194 8.79411
O -4.8012 6.22384 -8.58346
O -8.05174 6.17613 5.10485
O -8.76535 -3.00434 1.95029
O 3.24519 -3.94601 7.84322
O -7.2365 -1.13058 3.0587
O 9.22178 -5.19544 -3.06131
O -3.67207 3.45148 9.08094
O 9.4271 -7.24614 9.15212
O -2.02549 -2.11339 8.48648
O 0.695076 -0.987487 1.8527
O -8.48341 -2.81175 9.41944
O -2.55792 -8.84102 -7.12323
O 3.38182 1.0611 7.54808
O -1.22643 -4.83841 8.20904
O 6.73816 -8.10549 -5.82535
O -3.33785 -6.20378 7.49204
O -2.97807 10.4635 -5.32151
O -1.69064 0.198569 7.29018
O 9.08338 -8.91872 -5.06786
O -4.4248 2.84456 -3.15281
O 0.828322 1.30933 3.1676
O 2.04114 4.3882 -6.49745
O -6.22433 -4.31181 -0.445545
O -1.15996 -6.32169 6.02048
O -3.54989 -3.09014 1.40636
O -4.12997 -0.519782 1.44335
O 10.0258 8.54873 -1.8206
O -4.95352 7.80692 1.65387
O 2.23271 3.58485 7.72596
O -7.53557 -10.1368 -7.15784
O 0.0960951 3.53854 4.61769
O -5.93122 10.1886 -1.5445
O 8.87874 8.06022 3.24054
O -6.04613 4.85888 2.58159
O -8.41344 3.54185 4.90446
O 5.0417 -1.68626 3.49732
O 3.21024 -7.5198 0.82379
O 0.305216 2.72903 -7.73172
O -10.2753 5.00497 -1.57144
O 5.75168 10.1085 0.469606
O -5.98851 -8.23964 -8.24016
O -8.74255 -6.23403 5.40968
O -7.21484 -1.89847 0.453917
O 1.15949 -8.32203 7.70466
O -8.61906 -4.89987 -8.91707
O -1.70702 5.39822 8.56496
O -7.70391 5.24159 -2.53604
O -2.8945 6.25989 0.220917
O -3.77047 4.60821 7.02404
O -10.4904 -7.56246 -3.51497
O 7.02884 -2.14236 5.90818
O -2.17866 -6.52258 -8.03978
O 6.45233 5.00586 -2.36845
O -9.53284 8.2326 4.36959
O 1.53216 -9.07265 -9.24609
O -7.25364 9.44509 -5.01777
O 3.21146 -1.62987 -5.437
O -0.288277 -3.5162 -3.97645
O 5.37224 1.24094 -4.99592
O -9.33721 -9.58542 -5.22812
O 4.21176 -7.1365 -5.4487
O -9.15809 -0.421322 1.6426
O -3.60322 1.82828 1.84908
O 3.71839 -2.59826 -0.900937
O -1.35674 2.63332 2.79301
O -2.88789 -1.57857 -2.20619
O -1.03595 5.67738 3.79593
O -4.39457 -8.96602 1.86467
O 0.849041 -9.02176 2.17132
O -1.37693 2.68623 -3.65908
O 2.03438 -2.93509 -2.7643
O 9.02027 8.56813 -5.63934
O -8.26803 -7.05729 -7.51422
O 2.53539 10.2639 -7.23731
O -8.49276 9.78787 -2.08999
O 0.396788 7.03612 -3.62675
O 0.266381 -4.35614 -1.4433
O 8.67256 -9.38602 7.59223
O 7.28352 -2.97226 -3.04406
O 0.0761167 10.2318 -7.98092
O -10.3477 -6.76998 -8.83701
O 8.9951 -0.918577 3.20064
O 5.47692 -9.05443 -3.88043
O 1.75891 -6.38836 -1.18571
O -2.32235 3.6496 0.50259
O -4.74182 -10.2955 -7.27737
O 10.3115 -0.980947 -4.33627
O 3.10664 -8.71037 3.12916
O 2.65379 -0.564385 3.55962
O 0.583318 -3.02485 8.39555
O 8.95904 -5.12854 -7.38988
O 1.14469 -8.6893 -6.82479
O -2.35483 6.1535 -7.57542
O 0.292686 -0.879863 6.20432
O -3.46305 0.545967 8.90685
O -2.53112 7.69301 4.00034
O 8.46118 4.00468 -0.924178
O 2.49429 -10.4469 -4.60582
O 7.9291 9.0787 -0.529811
O -1.1297 10.2763 -10.1678
O -7.61739 1.04279 4.40706
O 5.4722 -4.49364 -0.813136
O -1.2763 0.533962 -1.81732
O -0.936146 -10.2978 3.92519
O -6.7552 4.73977 -4.89204
O -6.88768 -4.64951 4.38061
O -5.36161 0.581378 3.34663
O 5.84651 4.62954 6.96572
O -7.26374 -2.74463 -7.99473
O -5.68099 8.36524 7.94072
O 7.58637 0.541411 -0.0925469
O 5.97395 -4.15514 3.74687
O -5.09373 -3.12448 5.47129
O 9.73347 1.4756 -3.97735
O 3.09322 2.464 5.50222
O 5.67969 6.85692 -4.23515
O -7.90487 -3.06383 -1.90432
O -9.23549 -1.74052 7.34052
O -0.24669 -1.8733 -1.91838
O -4.8538 3.58969 4.76916
O 8.89217 6.54373 -0.546437
O -2.23083 -4.44504 -5.31955
O 6.56662 2.23663 -1.66257
O 1.69488 -3.0663 6.1165
O -7.22508 -9.14487 -3.14715
O -1.66798 9.53523 6.2762
O -6.23728 -5.43133 -8.47457
O -2.47465 -6.15025 -10.5755
O -0.428711 4.11592 -5.67248
O 1.37739 8.82557 2.47168
O 6.56707 6.96929 7.71599
O 1.21224 -6.92618 5.49302
O -9.74388 -8.63797 4.49694
O -6.19938 7.60893 -6.66749
O 3.03222 -5.96446 -7.54948
O 7.18829 -2.43247 2.19252
O 6.4955 -0.43664 -6.94529
O -5.53462 -9.18634 4.17519
O -3.91855 2.16134 6.90021
O -0.861484 -9.29795 -1.24796
O -4.11947 -1.22696 7.20965
O 4.51669 5.51691 1.65637
O 2.06068 4.90133 1.08152
O 9.7221 -3.30939 2.23163
O 7.77681 -0.408518 7.48071
O -4.84361 -7.1493 -10.1943
O 2.01168 -0.297863 -7.48109
O -5.42379 5.85352 0.205943
O 2.87864 0.993459 -5.32565
O 7.05068 2.04467 6.74761
O -5.49914 10.4916 6.41399
O -4.54938 1.62501 -7.65348
O 7.85157 1.567 -5.60677
O -6.75024 1.6814 -3.07465
O 10.4424 -7.50684 6.69624
O -10.0255 -5.1284 0.943562
O -9.4706 -4.97469 3.38319
O 5.50812 -5.1256 8.36625
O 6.38982 -9.11797 3.81004
O -3.21448 -9.71831 5.31888
O -3.33013 -6.68066 -5.7756
O -1.92318 1.81972 -8.63357
O -7.73917 -4.90957 -6.47112
O 10.3743 10.1899 3.06876
O -10.3017 -1.1846 5.04565
O 1.15044 -10.4848 -2.28772
O 5.53452 3.21194 4.97628
O -7.28422 1.93795 6.73055
O 8.72135 0.667424 5.39941
O -2.87431 -7.81386 -2.50421
O -9.12715 -3.55407 5.43179
O 5.25667 -2.28067 -8.6531
O -4.78915 -6.38514 -1.33786
O 3.65784 -4.33166 -9.51521
O -0.710939 1.1264 5.00863
O 7.15344 -3.14008 7.86151
O -1.13414 -4.34045 -9.11356
O -2.41913 2.66344 -6.28891
O -10.0999 -6.19964 -6.30133
O -0.780383 7.7311 7.92079
O 3.61693 9.06073 -0.501714
O -3.69036 -5.5304 -3.56926
O -7.6074 -9.295 -0.522321
O 9.99429 -2.89868 -6.19065
O -9.1255 -2.87569 -4.25478
O 8.82462 -7.78219 -7.25424
O 0.104846 5.47987 -7.78267
O -7.06301 7.96497 3.43235
O 10.4117 -10.2928 -3.21648
O 2.77197 7.72854 -2.74568
O 3.02266 -8.64048 5.74173
O -9.09356 0.471772 -2.88222
O -0.218063 -6.89529 -9.48274
O 7.9682 -5.05074 9.2949
O -0.832177 -6.69916 -1.39535
O -1.75359 -9.45044 1.8298
O -0.746698 7.85332 1.96236
O 7.05903 -7.35658 1.80856
O 4.67097 9.49275 -2.98035
O -7.41736 10.3859 8.08701
O 3.88053 5.62806 8.21518
O 1.05793 5.81114 8.25841
O 10.1127 1.06198 0.624452
O 4.68566 -2.04944 -3.20257
O -6.04071 -0.690434 5.53139
O -9.98373 7.51496 2.0405
O 8.89807 6.21456 7.12511
O 7.54064 -4.69587 5.78377
O -6.93662 3.67094 0.518929
O 0.113053 -5.82046 0.828011
O -9.38896 9.01897 -6.43079
O 0.197285 9.465 -4.51625
O 10.4069 5.08342 0.883071
O -7.06399 -8.49958 2.00879
O -6.37304 -2.18515 -5.80007
O -1.82111 -1.68566 2.49472
O -0.789585 -10.3982 8.38516
O -4.78499 -2.30455 -3.88074
O -5.11677 -5.70707 5.71464
O -5.85094 -6.26156 8.2206
O -0.0476746 -3.81533 -6.69413
O -7.56992 -6.94828 -9.90301
O 6.27718 6.95725 2.98031
O 5.26155 -0.997565 7.76119
O -7.8435 1.44288 -0.729445
O 9.15345 -7.0375 0.419426
O -9.8167 -9.16606 8.46572
O -9.27071 -7.60109 0.760386
O 3.96725 -0.639143 5.70098
O 1.1195 7.2078 0.412119
O -1.30904 -7.62792 8.21222
O -2.05332 -1.329 0.0926424
O -2.30312 3.75203 5.26516
O 0.838571 1.39384 -2.94735
O 3.29655 -10.3174 1.45182
O 8.13276 4.1318 5.94369
O -8.87327 3.03069 -2.54719
O -9.69229 1.8354 6.22408
O -8.90751 4.24528 -6.21063
O 0.0420959 8.04138 4.37903
O -4.6461 8.64188 -4.80315
O 2.37105 8.06794 4.94499
O 7.58408 -2.81753 -7.39108
O -2.5627 -8.62974 -10.9397
O -0.798526 -7.38666 -5.92085
O -8.07207 5.88472 1.02085
O 4.89305 -3.26552 1.39161
O 6.73399 -0.691862 -4.45967
O 4.25235 5.99325 -6.08807
O -3.88912 7.55077 6.39238
O 8.82832 -8.47239 3.46058
O -8.64549 2.03032 1.6129
O 6.7793 -6.62186 4.30948
