588
Atoms. Timestep: 1790001
Si -2.80182 -3.17094 9.26048
O -2.91762 -3.03714 10.9539
H -2.75706 -3.87395 11.374
Si 0.814863 -0.00856913 -8.7161
O 0.672939 0.174855 -10.4148
H 0.0203392 0.829109 -10.6352
Si -0.68765 8.09465 8.75115
O -1.24818 8.77277 10.2554
H -0.548515 8.85247 10.893
Si -2.1977 -6.22578 8.60218
O -1.81551 -7.0087 10.128
H -1.38845 -7.85605 10.0821
Si 1.68849 6.29252 9.94712
O 1.32293 6.61265 11.6214
H 1.67151 6.04411 12.298
Si 4.58087 -5.32058 8.32498
O 3.71812 -5.69233 9.80577
H 3.96863 -5.15378 10.5472
Si 6.83905 -3.24695 9.11259
O 6.81944 -2.90095 10.7442
H 7.63107 -3.08968 11.2004
Si 2.06009 2.7996 -8.21018
O 2.52239 3.29622 -9.78667
H 3.44867 3.40367 -9.96823
Si 1.83124 -8.66105 -6.36767
Si 5.27114 -7.89359 6.65847
Si 8.84721 8.99922 6.78513
Si 6.15134 -0.682974 7.33203
Si -3.55494 1.3503 7.24942
Si -2.3899 7.10209 -3.72836
Si 10.4115 3.42701 7.80793
Si -7.8039 9.06742 3.90596
Si 3.21193 3.00094 -1.0092
Si 10.4387 2.45997 4.78181
Si -4.77291 -2.66563 -0.685854
Si 5.21461 -0.827232 -5.92289
Si -5.16493 7.54215 -0.582759
Si -7.29451 -0.115342 7.5828
Si 3.1731 -4.54172 3.5956
Si -9.73208 -4.60341 -5.3988
Si -1.59483 -1.42362 -7.25221
Si 4.37378 3.43234 -3.74807
Si 1.35462 -6.29587 -0.617257
Si 2.68797 -2.2465 -7.52088
Si -7.80047 -7.03961 -5.43997
Si 5.97975 -6.07011 -3.40609
Si 10.4546 -7.53382 -9.07301
Si -10.3821 8.91929 2.10326
Si 4.52699 -9.84267 -6.00918
Si -4.00691 -6.93743 4.48477
Si 7.17714 4.42878 -7.0359
Si -1.00332 5.75095 0.770764
Si -2.77962 -10.1096 -7.93196
Si 9.03814 -3.3006 -0.343488
Si 5.71013 -10.368 2.4094
Si -2.84258 -2.08943 5.21922
Si -1.9029 5.04741 4.82162
Si 4.4542 -5.58678 -0.668246
Si -4.32239 -5.04467 -7.00123
Si 1.33016 -4.00513 -5.3685
Si -2.23048 5.42687 7.87735
Si 1.91754 9.70032 -1.78604
Si 2.31487 -3.7707 6.54895
Si -1.41229 9.22367 -5.70729
Si 0.277903 -9.78371 -4.05615
Si 9.00516 -1.78931 -3.09361
Si 0.19486 -2.85322 -2.74789
Si 9.30219 -4.83177 -9.20703
Si 6.29374 0.52965 2.44531
Si 0.162028 -10.0577 -8.71403
Si 6.63106 7.71813 -4.01439
Si 7.37636 2.1272 7.44864
Si 0.205262 -5.89461 6.58892
Si -6.72365 -1.20541 -5.37306
Si -7.70426 2.80752 8.60281
Si -10.078 7.4323 -5.75233
Si -10.066 9.47736 -1.04605
Si -1.61705 -0.838886 7.79886
Si 9.58685 7.38141 -2.86882
Si 4.87135 2.21512 -6.66153
Si 7.49472 5.71293 5.0805
Si -0.0125858 5.12874 -4.07861
Si 2.78203 -9.5028 3.28963
Si 3.49673 0.267934 3.65982
Si -6.81872 -2.50075 1.80305
Si -6.04588 1.51539 5.31352
Si -5.47159 -5.27364 -4.2368
Si -1.38265 2.06483 5.14201
Si 3.96011 8.91655 6.27245
Si -7.97136 -9.14639 4.73584
Si -1.40903 -9.99675 0.789644
Si -2.7424 -0.539511 -1.57388
Si -1.08325 -4.60174 -7.2533
Si 10.3091 -5.52335 3.01574
Si 0.409955 -4.89538 1.86467
Si -4.67099 -0.462327 -7.38684
Si 3.47585 -5.11221 -8.81946
Si 7.11336 3.73684 -2.09085
Si 7.93131 -9.31683 7.92583
Si -0.39345 7.30296 3.38813
Si -9.19427 0.00367063 -7.09969
Si 6.20585 -9.09713 -3.45101
Si 3.39274 8.22369 -6.14868
Si 4.37254 6.98352 8.67847
Si -9.19382 5.46666 -2.32044
Si 2.81184 4.61653 5.75763
Si -2.7815 4.27736 -6.58459
Si 10.1955 -8.21296 4.77767
Si -5.84992 0.289864 2.34255
Si -5.776 -10.3655 -7.35108
Si 4.75545 6.79392 4.34077
Si -1.71129 -4.90874 4.24831
Si 2.54131 3.07521 3.07604
Si 6.38231 -3.46664 -6.73118
Si 5.95473 -0.993071 -2.77812
Si 3.26097 6.1416 -0.469201
Si 5.64172 -6.42497 3.99118
Si 7.9923 -4.44008 4.65321
Si 0.645326 1.15127 7.12149
Si 10.3445 -0.685283 4.30973
Si 9.99441 6.30722 6.84511
Si 5.51478 4.37824 7.22682
Si -7.55293 8.22813 -2.50758
Si -1.2461 -0.628257 -4.24008
Si -5.2539 2.54869 -7.24017
Si -5.19346 8.1732 2.36998
Si -8.15531 0.580026 0.0407986
Si -2.25347 -7.8323 -3.94464
Si -4.11826 -7.97026 -6.61471
Si -9.47224 -2.94956 -8.02766
Si 10.3209 -8.50693 -1.65071
Si -4.76321 3.91795 8.62318
Si -7.17177 -1.36027 -2.22595
Si -5.10477 -2.47956 7.34983
Si 8.59678 3.26953 -4.63519
Si -9.80036 -1.66415 1.34257
Si -5.0159 4.39778 -0.0851864
Si 6.91371 10.341 -7.8826
Si 1.12758 -2.3491 0.21762
Si 8.9998 -6.3548 0.244065
Si -3.94866 -5.58263 -1.40218
Si -8.09333 -7.16791 -2.36868
Si 6.31744 7.49311 -7.02348
Si 6.37668 -5.17038 -9.51
Si -9.39756 -2.25374 6.75429
Si -0.136023 -10.3938 6.72595
Si 0.827577 -6.74208 -8.51418
Si -4.75069 -7.73262 7.28116
Si -5.69363 2.92459 -4.09685
Si 6.2094 9.33706 8.09245
Si -1.45249 2.49107 -4.22316
Si 1.3814 9.20038 4.7282
Si 3.92504 6.42393 -3.65054
Si 5.33619 4.37384 2.51527
Si -7.20799 -4.63285 6.34153
Si 4.14268 -5.33876 -5.78928
Si 0.718565 4.21821 8.04053
Si 5.8522 1.44045 -0.544556
Si 7.40786 2.59248 4.28615
Si -3.23015 -9.32736 -1.48395
Si -0.647828 0.0840004 0.634374
Si 10.1926 4.57778 -7.01945
Si 10.1676 0.737945 -4.5315
Si 10.2571 -7.31813 7.86197
Si 3.15023 -0.658898 6.62989
Si 5.84847 -2.9102 -0.266972
Si 5.25342 8.17913 0.572476
Si 9.90876 10.3341 -6.67594
Si 9.36256 5.97608 2.38804
Si -5.64846 -8.10803 -0.572866
Si 0.737667 8.11005 -7.78625
Si -3.60637 2.41053 -1.94177
Si -2.91741 -9.49665 5.77947
Si -6.3041 -7.69946 2.46514
Si -2.79234 0.0719771 2.88523
Si -8.34525 6.36184 5.04596
Si -4.85008 5.90519 -4.74484
Si -8.04234 3.62461 0.082558
Si -8.77522 2.96778 -4.18786
Si -3.79092 5.48017 2.41988
Si -2.35525 8.87487 -1.22424
Si 4.98304 9.72615 -2.18955
Si 3.81129 -2.20412 1.75119
Si 2.14076 -8.37877 6.19097
Si -7.7789 -7.50366 7.4223
Si 8.8396 -6.83998 -6.83464
Si 1.65337 -9.23827 0.383414
Si -9.12797 4.28122 2.86552
Si -8.57998 -9.15934 -7.78892
Si -6.37184 -2.91774 -7.70104
Si -7.53303 -5.08694 3.27966
Si 7.06701 5.66869 0.356729
Si 9.37637 -4.2957 7.57608
Si -2.53317 9.69213 3.24094
Si 0.161237 5.20428 -7.20432
Si -6.4651 4.29693 6.29723
Si 0.549247 6.82499 -1.51403
Si 0.586082 3.03597 0.666719
Si 7.48968 -8.09932 -9.10691
Si -1.11496 -5.4687 -2.40779
Si 6.22337 -7.60524 1.1038
Si 7.25063 -1.45405 4.48747
Si -8.35378 2.97192 -7.38845
Si 8.94936 -8.78748 -4.44951
Si 8.41951 -4.43591 -4.6121
Si -6.93821 8.24168 -5.52328
Si 8.59065 10.2402 3.91629
Si -8.03034 -4.15779 -2.90561
O -7.059 -8.70306 3.52424
O -2.293 8.08622 -5.01025
O -1.64993 -6.41784 -3.55221
O 1.80939 -1.12148 -8.29953
O -3.03182 -8.55959 -7.61298
O 5.10297 -6.89148 0.0994735
O 1.79379 2.83236 -0.346188
O -2.32325 -9.07418 -0.140146
O -8.29995 -5.62171 -2.1962
O -5.6709 7.95008 0.86087
O 8.67063 4.44625 -7.66972
O 1.02881 8.34521 -1.71379
O 8.26986 3.59598 -3.07903
O -2.77483 10.2277 -2.04682
O -7.73219 -5.90171 7.06206
O -8.62633 9.15206 -1.7004
O 2.44143 9.28034 5.97966
O 4.03076 -5.75724 -7.35654
O 9.08482 -8.13795 -9.6202
O 2.05185 -5.87166 -9.11055
O 0.416317 6.57699 -8.03138
O 8.98634 -3.02391 -4.14671
O 2.66343 -2.46422 0.626263
O -5.91769 6.97584 -5.30629
O -10.2471 -1.14453 2.81726
O 1.1189 -9.44134 6.85341
O 3.57281 -4.52633 7.33078
O -9.17336 -3.99896 -4.00717
O -4.35368 10.3551 -8.1606
O -1.45712 -1.32624 -5.65657
O 7.16008 1.99544 5.74922
O -10.5031 -10.0446 -1.3096
O 4.38858 2.1218 -0.437367
O -4.56701 -6.81806 -0.506616
O 7.54684 -1.19838 -3.00401
O -8.22263 -7.43611 -3.93512
O -7.5834 3.59422 7.22223
O 7.52496 -9.52155 -4.16848
O 5.18327 -6.52277 7.52961
O -3.05203 4.97425 3.7197
O 4.39113 -9.80304 3.15462
O -4.142 -2.7166 8.58926
O -5.2803 4.64512 7.25583
O -3.09902 -5.69089 4.1888
O 0.723852 5.86379 -2.8522
O 3.85573 -1.55133 -6.70999
O -8.35305 -3.4912 6.30115
O -7.86743 -3.27794 -8.29072
O 2.58137 -2.16738 6.70807
O 5.33175 0.689883 -6.5315
O -3.70923 8.2314 -0.725092
O 6.88566 -5.57664 4.44165
O -9.82229 1.7938 -3.82231
O -2.98283 10.332 4.6838
O 3.37888 -0.881966 2.58048
O 7.53055 -4.11658 -5.87888
O 6.64354 4.7345 6.09875
O 10.1089 7.42365 2.44575
O -7.09603 5.63399 5.69614
O -8.4984 2.09831 -0.251081
O -2.5785 5.86674 1.33356
O 8.25735 5.80081 3.595
O -7.61884 -0.203314 -1.27972
O -0.544533 4.22332 0.521606
O -2.40744 5.36011 6.28198
O -4.80402 -6.9067 5.93482
O -9.41089 2.99513 3.80267
O -3.0001 -8.21196 4.81847
O -1.23364 -2.99041 -7.65252
O 2.65583 -3.9793 4.99308
O 6.32997 3.19629 7.99593
O -0.211462 1.61438 0.700236
O -10.4997 6.06052 -6.43911
O 10.3737 -3.58794 -8.94162
O 0.710758 7.30573 9.17454
O 1.44823 -6.93137 6.41828
O 3.69338 4.91278 -4.07745
O 4.04101 3.83154 6.6534
O -3.05022 -8.302 -2.65446
O 5.07925 -1.97694 0.821578
O 3.40522 2.76596 -2.62809
O -0.719358 6.43641 -0.647279
O -8.00763 -2.79269 -2.03933
O 5.04046 -4.24954 -0.0527477
O 5.11919 9.75224 7.03865
O -6.74727 3.04706 -7.64629
O -9.01506 9.27632 2.81179
O -1.94431 -10.2102 2.29175
O 6.32905 -1.83717 -6.49442
O 5.46782 8.21974 9.0359
O 2.85683 -5.69766 -0.694814
O -6.47405 3.79203 -0.219424
O -8.1288 -8.1855 -6.51438
O 5.22873 -0.88613 -4.21264
O -1.18354 3.61151 4.73835
O -1.70835 -2.10873 8.70515
O 5.77248 -10.2915 -6.87595
O 8.26029 -3.82989 8.63832
O -0.395499 9.91391 -4.71097
O -2.41704 2.00048 6.35918
O 8.51712 5.77647 1.04829
O 2.38948 3.82894 4.45024
O 8.7598 -5.50462 -7.78689
O 6.6556 8.7066 -8.06529
O 6.29783 3.68972 3.64226
O -3.75786 5.3123 -5.78532
O -3.89102 3.47388 -7.49208
O 7.2367 -3.01041 4.47842
O 5.68307 3.62368 -2.88861
O -8.49153 3.05021 -5.79316
O 6.46636 -0.975706 5.74893
O 6.88105 -10.3069 8.71972
O -6.58955 -4.39765 -3.60903
O 10.3634 0.876854 4.67056
O -1.57267 9.52327 0.011667
O 1.13698 -3.53092 -3.88733
O -9.85388 -3.55002 -6.593
O 7.0625 10.3738 3.37011
O 8.96348 -8.16997 8.50523
O -0.040695 1.39562 5.685
O -1.13826 0.954086 -4.42277
O 10.0836 -7.66063 6.29742
O 3.21818 -3.54344 -8.43594
O 0.91519 -2.58111 -1.33872
O 7.01509 0.621978 7.72444
O 0.748275 9.46927 -8.83242
O 10.0906 -2.66324 0.759152
O -9.23171 -7.91575 -1.70563
O 1.5599 4.96889 6.77316
O -3.42366 4.84015 8.81692
O -2.11402 -3.47066 4.71508
O -6.87781 0.627821 1.10157
O 3.65605 9.75159 -5.79749
O -0.181912 -1.44021 -3.41281
O 7.66337 -7.76655 -7.48278
O 5.86547 8.9569 -3.33841
O 8.00018 7.32807 -3.31598
O -3.49488 0.941066 -1.33897
O -8.3621 -2.3538 1.3709
O -7.14072 -6.39578 2.55644
O -7.11631 -9.81075 -8.09713
O -1.01169 -3.86858 -2.69716
O -4.58397 -4.72013 -5.42532
O 10.4369 4.80309 2.4969
O 7.37119 -5.19485 -3.64852
O -4.63053 -5.72289 -2.93929
O 4.37944 8.31971 4.75832
O 0.395367 -3.54406 1.00394
O -8.82655 4.65242 -0.936263
O -2.47339 -0.70955 -3.15835
O 5.20745 5.65664 8.18391
O -4.75887 -9.35893 -1.03905
O 1.94608 10.1365 3.57215
O 7.38266 1.49806 3.1302
O -9.22851 -7.71225 8.13402
O 10.2519 -6.8756 3.9456
O 0.527787 -8.3066 -9.14792
O -8.46629 7.72681 -5.94884
O -6.34159 -6.45253 -5.03679
O 7.58851 -6.86455 0.713593
O 3.95446 3.61098 2.49415
O 4.66081 7.56903 -6.85049
O 10.0259 -5.75778 7.9471
O 5.43699 -7.56249 5.13939
O 4.16946 -5.71704 3.82517
O -8.57268 -1.08215 7.58115
O -4.6484 4.48138 1.50381
O 1.42068 -7.29639 -7.08877
O 6.4465 7.1383 0.37744
O -5.67968 -1.52402 -8.14363
O -3.4707 -6.95117 7.98229
O 3.62337 6.65101 -2.10847
O 8.70778 -4.4715 6.0832
O -4.03123 -9.14187 6.90047
O -0.603971 -5.57265 5.23426
O 5.75411 0.189474 -1.62947
O -6.2517 -8.22803 0.949232
O 8.65887 6.05221 6.07035
O -5.72144 -2.64756 0.603135
O -4.9074 2.3339 -2.91606
O 3.40748 -8.8141 -6.53477
O -4.71312 6.73733 2.77289
O 4.00372 7.17555 0.514602
O 6.70068 -6.75274 -9.55279
O 10.2351 5.05707 7.8762
O 0.299946 -5.92856 -1.72374
O 1.65903 -7.92544 -0.479073
O -8.34685 3.86971 1.5718
O -2.27781 10.2214 -6.55639
O -0.341738 9.38443 7.80118
O 2.47156 1.48916 3.40933
O -9.52854 3.98263 -7.86868
O -3.92679 6.5897 -3.54919
O -9.3729 -0.359018 0.537577
O -3.1524 -0.920951 -7.591
O -6.23475 3.60611 9.22062
O 0.888107 -9.72436 -7.22777
O -2.96907 -1.17138 3.90832
O -1.3323 -0.1963 -0.785173
O -7.07576 -1.07517 -3.82167
O -8.41877 5.48289 3.68899
O -1.46651 4.89855 -7.24278
O 2.30385 -8.69725 4.59759
O 9.1082 -4.91097 -0.579131
O 6.06881 3.20218 -7.30183
O 9.89698 -5.96232 1.56307
O -1.46589 5.82541 -4.05082
O 6.07905 -9.16986 1.34828
O 0.589312 -5.98228 0.735592
O 5.52828 6.54165 -3.88856
O -0.170785 3.49337 -4.03607
O 0.949403 -10.2613 -2.63218
O -8.89963 1.46742 -7.78538
O -1.91095 7.90589 -2.45247
O 5.37374 9.23069 1.79469
O 3.19331 6.67898 9.66893
O -7.32972 1.24043 8.54525
O 4.56161 -0.58218 7.5262
O 9.87447 8.6352 -1.87284
O 6.92661 7.9071 -5.61801
O 0.137702 -9.5673 0.802475
O 8.81105 -1.06946 4.52273
O 3.91357 -3.35321 2.82482
O 0.947256 -4.46713 6.89817
O -2.93455 0.0915763 7.98694
O -4.78173 1.14295 6.23477
O -6.05832 -1.18151 7.5592
O 7.33352 8.62382 7.27848
O 4.75437 -5.22466 -9.7833
O 4.57232 2.60416 -5.07871
O 1.16033 4.02143 -7.72522
O 5.0283 -5.57311 -2.17502
O 9.07254 -9.28866 4.43381
O -3.87645 3.53978 -0.845818
O -7.0828 -5.17134 4.85733
O -0.848201 4.60086 8.03224
O -6.71041 -7.64049 -1.74094
O 8.88839 -10.4108 7.17025
O -3.92529 9.1297 2.63428
O -0.952156 -8.80167 -3.96331
O -4.7208 -6.5864 -7.22769
O -5.70867 -1.93763 -1.82876
O 7.89904 -4.67841 -10.0634
O 8.87819 2.63543 7.82118
O 6.69083 -8.62857 7.02236
O -0.953469 -6.24683 7.63218
O -10.348 3.01942 6.28122
O -4.38372 -4.12663 -0.978675
O 9.77023 -5.17173 -5.08263
O 6.27757 6.74282 4.89315
O -7.18102 8.77015 -3.98991
O 0.139882 9.82672 5.36815
O 5.06483 -6.08624 -4.73355
O -3.23484 -7.79219 -5.20618
O 6.44586 -7.5379 -3.14564
O -6.41536 8.80088 3.17657
O -1.02933 6.25095 4.34534
O -5.46564 4.53859 -4.14069
O -7.86849 -0.394206 -6.21965
O 5.8963 -7.07767 2.54993
O 8.80741 9.1735 5.13919
O -10.2678 0.285115 -5.98544
O 5.01354 -9.33686 -4.58091
O -1.5298 -9.58772 6.50661
O 9.32531 -2.42674 -1.68533
O 1.6982 6.35259 -0.471989
O 9.94317 -0.588748 -3.69672
O -2.33859 -5.64622 -1.39223
O -0.261714 6.64164 1.93134
O -6.10177 3.07099 5.3357
O -5.19555 -9.19513 -6.43874
O -6.23576 8.07397 -1.6111
O -6.23312 -7.73069 7.98588
O 6.61084 -1.99768 8.14675
O -2.71984 -4.86876 -7.22654
O -9.15587 4.34693 -3.47249
O 3.88652 7.68742 7.29477
O 9.49072 -8.45303 -3.01792
O 2.0446 0.389303 7.07115
O -4.18637 -2.2349 6.028
O -4.2232 0.438872 2.22463
O 9.58033 -7.57525 -0.582826
O -9.18353 -4.94842 3.14724
O -7.19247 0.606052 6.10401
O -5.36226 2.52387 -5.62321
O -9.38519 -1.31899 -8.01419
O 1.39413 4.8449 9.35134
O 10.3419 -6.06979 -9.65164
O -6.80236 -2.67459 -6.13766
O -9.29754 2.98949 8.78086
O 6.82343 -9.54026 -9.04364
O 9.17956 -4.58105 3.60333
O -9.71146 6.24231 5.88027
O 3.574 -0.243247 5.17305
O 6.6521 -0.867169 3.05093
O -2.13389 1.27169 3.89727
O -2.23545 3.14755 -5.5395
O 5.71783 -4.29673 8.81252
O -4.96962 -7.30349 3.25765
O -7.72386 -8.38373 6.07697
O 0.460477 5.38101 -5.5779
O 0.982811 7.80502 4.02791
O -6.78622 -3.85247 2.67138
O 1.36692 3.36746 2.05226
O -6.00336 -3.84439 7.08032
O 8.76107 -7.4599 -5.35355
O -9.7797 -10.0784 -7.38508
O 1.17477 1.4698 -8.26948
O 0.538534 -0.935267 0.65084
O -3.5169 -1.66895 -0.768803
O -10.1681 9.05374 0.463292
O 5.62514 -9.78974 -2.14717
O -0.347551 0.173459 7.89943
O 5.01546 -3.98926 -5.89008
O 3.7375 5.80898 5.20082
O -1.68971 6.95883 8.2538
O -8.65425 -5.70461 -5.79548
O -9.84662 -1.49198 5.46405
O 10.1737 -7.41258 -7.50391
O 8.49057 10.4608 -7.36976
O 2.35395 -8.96689 1.8344
O 6.21634 0.851695 0.946617
O 8.81236 1.65669 -4.71855
O -9.17849 -8.30666 -9.04718
O 4.95631 5.95662 3.05099
O -1.42337 8.52741 3.34218
O -7.25037 2.57722 -3.81389
O -0.365016 -5.72692 -8.16135
O 7.03169 5.03895 -1.11864
O 9.83137 -9.87237 -5.26492
O 1.79593 -4.85821 2.69407
O 9.8841 7.88695 7.20049
O -0.583462 -0.416344 -8.01302
O -4.95323 1.05501 -7.76735
O -4.13967 2.425 8.28636
O 9.91312 3.74631 -5.60293
O -1.43524 -10.1362 -8.849
O 2.15241 10.4621 -0.393939
O -7.68232 10.3293 4.86287
O 6.13375 4.65401 1.18606
O 7.40272 -3.05771 -0.00347374
O 1.70864 -2.91034 -6.41576
O -5.2039 -0.687554 -5.87066
O 5.15671 9.02499 -0.816487
O 3.56334 4.55143 -0.61585
O 6.31404 -4.19506 -8.15872
O -6.31254 -1.22748 2.59945
O -5.13727 5.93096 -0.579214
O 4.94999 0.848043 3.24963
O 6.67032 5.94102 -7.18743
O 2.15089 8.06323 -7.03151
O 10.4153 -3.08392 7.44495
O 10.4501 7.44951 -4.22799
O 5.69379 -2.29278 -1.78523
O -0.859325 -4.94586 2.8854
O 2.58005 -5.01596 -5.31808
O 3.48559 2.54476 -7.45993
O 7.02045 2.44764 -1.0855
O -0.12507 -4.54781 -5.93972
O -1.70272 -0.175276 1.75131
O 3.71683 -8.52717 6.71966
O -6.01928 1.02662 3.75839
O 10.3191 6.11624 -2.19366
O 9.48228 9.8821 2.64478
O -5.34406 -4.12348 -7.81994
O -8.20532 7.84466 4.78568
O -8.20559 6.69642 -2.64226
O 3.26905 7.4343 -4.73823
O 7.46615 4.00741 -5.50783
O -6.22858 9.30608 -6.56796
O 0.875232 2.68119 7.69695
O 8.94577 3.09511 4.48559
O 3.37463 9.61493 -2.4505
O -0.489314 8.47716 -6.88849
O -2.39178 2.69915 -2.93541
O -1.87117 -1.38527 6.32079
O 1.4319 -8.98304 -4.87057
O 10.1945 8.74981 -6.31579
O -9.48225 -8.9906 4.46617
O -2.57892 -4.69606 8.84831
