585
Atoms. Timestep: 1790001
Si -8.67111 -0.13481 8.41217
O -8.319 0.426913 10.0376
H -8.26218 -0.27047 10.6802
Si 10.4814 -3.34806 -10.4489
O 9.85259 -3.83761 -11.9136
H 9.72194 -3.1111 -12.5116
Si -1.58395 6.97978 -8.9844
O -0.675071 6.76108 -10.3698
H -0.975057 6.00303 -10.8575
Si -9.75141 -2.96933 9.37226
O -9.48426 -3.0188 11.1004
H -10.137 -3.46869 11.6239
Si -2.37024 10.0232 -8.5032
O -3.07704 -10.0739 -9.78929
H -3.74847 10.4918 -10.2887
Si -7.67746 -4.53396 -9.6741
O -6.96088 -5.09161 -11.1361
H -7.57154 -5.19562 -11.8564
Si 3.2413 0.276364 9.58445
Si 2.94512 2.70727 9.46479
Si 2.20321 -10.3443 3.64308
Si 5.83887 -1.27237 9.04333
Si 6.27791 7.24187 -7.60233
Si 6.71222 -0.819017 -4.57076
Si 4.38788 -2.24429 -0.171557
Si -6.25372 0.536716 6.56781
Si -6.94543 8.50981 3.22237
Si -3.11011 1.28912 0.617282
Si 7.02489 0.300377 6.59373
Si 5.16223 -3.61441 4.57017
Si -2.25627 -8.09546 2.91
Si 2.04579 -0.386988 4.87646
Si -3.7463 3.39424 4.51342
Si 4.34825 5.06091 -6.93433
Si -6.29647 3.25118 -9.44254
Si -5.18912 9.03083 7.12593
Si -5.21842 -4.17715 -0.63898
Si 8.61972 -5.88658 -2.14852
Si -2.26783 6.54539 -4.28275
Si 5.96474 8.66754 0.367117
Si 9.23052 -2.44208 -2.33194
Si 3.10385 5.32773 -2.33984
Si 7.9091 1.56037 0.0764773
Si 6.31474 7.77494 5.74202
Si -2.20554 -0.871414 4.70427
Si -5.8593 7.31401 -1.79825
Si -4.72097 9.86907 -6.37659
Si 6.87418 9.5128 3.16161
Si 5.47565 5.65318 -0.327587
Si 3.7224 6.40749 4.44545
Si -4.16611 8.92536 -3.54875
Si 9.99371 9.23278 6.0562
Si -8.57797 -6.41379 3.20585
Si -6.30534 -8.38865 -6.03554
Si -7.87638 3.22017 -2.64029
Si 0.60261 3.67036 -1.31933
Si -6.23018 7.0658 -6.98947
Si -2.34749 -4.43152 -3.88354
Si 2.84327 -8.62193 -0.689693
Si 1.64452 -1.51189 -5.10607
Si 10.0503 -2.56808 -5.38838
Si -2.38521 -8.10122 -0.205093
Si 3.55897 9.55258 -1.43656
Si -1.1726 -8.52781 -4.76652
Si 8.242 1.91752 -7.21935
Si -2.9321 1.02665 -6.35139
Si -8.08203 1.9483 2.5874
Si -10.4053 -9.6715 0.672763
Si 9.97055 6.78297 4.09777
Si -4.00787 -0.930773 2.49152
Si 9.6871 8.86681 1.90032
Si 1.65974 -1.74713 7.76635
Si 0.0505799 9.42952 1.82997
Si 0.485375 -6.88131 -0.524001
Si -4.69186 -9.18696 6.7769
Si -3.03281 9.46545 2.01527
Si 7.58864 -5.75257 0.873486
Si 5.05762 1.43432 1.45291
Si 0.255846 -10.2077 -6.94118
Si 9.93077 1.48263 7.07434
Si -6.32984 -1.94741 -5.27011
Si 5.06587 4.71196 8.42776
Si 2.5376 -4.42518 -4.91146
Si 2.39897 2.73686 5.37782
Si -9.7018 -6.44741 -3.33627
Si 3.99398 4.29584 2.15492
Si 4.23105 -6.51719 -6.02121
Si -10.2697 0.214258 -6.69855
Si -7.65089 -5.83136 0.190441
Si 4.56497 -6.84642 1.338
Si 0.305485 -5.97476 -3.48521
Si 6.52232 3.64322 -5.16307
Si 7.55612 6.37836 8.37875
Si -9.25623 -3.72093 -1.01665
Si 9.41871 8.04555 -3.04914
Si -9.74007 4.48463 -6.04154
Si -2.07326 4.07872 6.88159
Si -2.77576 -3.45191 1.09744
Si -5.16003 -1.90917 5.02345
Si 7.76482 -2.40841 5.62674
Si 9.88683 -6.99234 -6.18597
Si 0.830931 7.10197 3.78817
Si -6.9023 -1.76019 -1.16689
Si 1.00622 4.10628 2.94406
Si 0.444469 -7.97572 4.39268
Si 0.608684 8.88416 -1.22636
Si -5.4671 0.731824 -8.23246
Si -1.80715 -10.4177 -2.35493
Si 1.89844 -4.9909 1.55912
Si 4.17948 -4.43662 -2.29958
Si 7.48859 9.20136 8.01962
Si -0.0469029 -0.481647 2.71852
Si -6.23485 -7.98745 4.47632
Si 9.89015 3.88648 -8.90739
Si 9.46038 -7.45036 2.6705
Si 8.19961 4.29305 4.48557
Si 3.72572 0.596957 -1.22664
Si 4.19822 -7.3765 -2.94523
Si 5.80399 10.018 -6.76117
Si -7.89897 2.24557 -6.95735
Si -8.14449 -5.08763 7.60777
Si 10.1235 3.3893 -3.26262
Si 0.150279 -2.68647 0.396651
Si -9.88978 9.66603 -4.80856
Si -0.07196 7.63584 -6.25771
Si -0.634154 8.69203 6.25042
Si 7.86197 6.33773 -5.30526
Si -3.05627 6.95829 6.99256
Si -4.13919 4.0181 1.51263
Si -0.685526 -3.00847 6.42365
Si -3.37524 1.29492 6.42803
Si -1.89484 -9.6919 5.33147
Si -7.72041 -3.6863 4.86957
Si 4.2898 -0.255089 -6.46716
Si 4.81974 -5.98177 6.31375
Si 8.48103 -9.65349 -5.70886
Si -8.02987 8.47332 6.17762
Si 9.17476 -0.463052 1.95002
Si 8.12748 -3.174 8.73638
Si -8.92558 2.31886 -10.0511
Si -8.24712 -4.2602 -4.84284
Si -6.77012 -1.91218 -8.44566
Si -9.53609 -0.546327 -9.59842
Si 6.8478 -3.84636 -3.50759
Si 6.97134 -8.96398 7.72767
Si 9.97114 6.89896 -0.357625
Si 8.39134 4.42737 -0.853569
Si -7.07194 -1.05362 1.99758
Si 0.570751 -4.97858 4.4345
Si -7.97031 6.9717 0.551769
Si 9.185 -8.84933 5.35241
Si 10.4198 -3.56522 4.57249
Si 7.49828 -2.60637 0.443439
Si 0.988469 4.17546 7.87733
Si 7.1024 -5.30446 -6.34864
Si -3.61172 0.662882 -2.37673
Si 6.89464 -0.825592 -7.53987
Si -6.73521 3.27003 5.09785
Si 7.14441 -8.41998 -3.06421
Si 2.83584 2.435 -6.50438
Si -7.13411 3.83553 0.419714
Si 4.0367 -8.92537 6.58903
Si 8.29327 10.2947 -1.25731
Si -5.67002 -9.82558 2.11627
Si 9.96692 1.80461 3.84172
Si -3.49697 6.8383 0.351529
Si 8.39882 -3.29959 -8.02258
Si -0.779872 1.51274 -3.08045
Si -2.52138 -5.18103 3.67047
Si 0.942108 -0.879143 -2.08984
Si 2.66067 6.92312 -5.0047
Si 4.16191 -1.36732 2.621
Si -8.91092 5.51364 5.86839
Si 2.26713 9.55004 6.58202
Si -3.58411 -4.04039 6.40717
Si 9.54331 4.45286 7.32377
Si -7.97541 -9.10431 -3.40097
Si -6.22262 5.2664 -4.26405
Si 3.22111 -9.31872 -6.7176
Si -0.020225 1.95216 1.11121
Si -0.989316 6.22198 -1.37005
Si 7.55631 -6.07358 7.87966
Si 2.8671 6.49918 7.27371
Si 10.2947 -6.2095 6.3182
Si 8.79403 0.501247 -2.6492
Si -7.49481 -8.89143 -0.348672
Si -3.34819 -1.52816 -4.37887
Si -4.25225 8.00539 4.42859
Si 3.86909 9.76393 -4.46299
Si -3.63929 4.03651 -5.64602
Si -5.53609 -6.34184 7.04823
Si 0.0107546 0.998133 -6.07071
Si -6.57834 0.512908 -3.3601
Si 4.88188 -9.20029 3.49245
Si -8.28591 -6.4386 -7.24831
Si 4.23651 2.68673 -3.61304
Si 9.0634 6.61862 -8.18525
Si -3.79953 -6.85697 -5.01779
Si -9.25672 7.43097 -6.94369
Si -3.89415 -6.20135 -2.07163
Si -4.21189 5.14705 -8.57956
Si 5.56877 3.05167 5.63596
Si 4.06438 -3.32067 7.36473
Si -9.61645 -2.63833 1.97553
O 2.91961 1.55675 10.5915
O -4.21952 -10.4559 1.78521
O 10.1139 -6.26841 -2.28134
O 3.0284 -8.29834 -2.29867
O 9.31653 -3.2138 -6.65902
O 1.33837 -3.72913 0.784853
O -6.32283 6.17792 -5.60366
O 9.81667 2.952 7.70749
O 9.6182 -0.856561 -2.34835
O -5.48158 8.6042 -2.75819
O 8.22525 -2.43865 -1.00067
O -9.52938 6.98381 0.192446
O -5.19637 -5.31693 -1.75079
O -9.5979 1.89759 3.09197
O 3.08926 -0.968873 3.74838
O -2.26352 0.210458 5.92946
O 2.66473 6.33468 -3.46015
O 7.31157 -1.22692 -5.97636
O 10.1816 -4.94981 5.26758
O -7.10661 7.49396 -0.713258
O -5.23133 3.929 5.07567
O 4.86663 4.93485 0.981732
O 7.6988 0.0649376 -3.71912
O -5.88194 -0.581494 5.41415
O -7.48817 -4.22078 6.4036
O 6.55176 -2.32971 -3.76409
O 7.08285 6.67294 6.78235
O -10.2512 8.65617 -3.62646
O 5.27507 -0.954273 -7.53852
O -9.47031 3.40731 -2.55888
O 4.11241 3.79688 9.34354
O 4.54754 -10.0496 -7.2406
O 9.37697 -8.49074 -6.32598
O -2.76392 -5.08426 -2.45577
O -3.76658 3.51976 2.999
O 3.43894 -7.77171 -6.72012
O -3.10909 2.50293 -5.76066
O 6.34465 8.92929 6.95352
O -6.83831 -3.33454 -9.09212
O -10.3572 4.13737 -7.49398
O -2.75097 2.61599 7.23434
O 7.10988 9.63731 -0.286684
O 1.30159 1.94616 -6.53695
O 8.01048 -1.52677 1.5534
O -4.31639 9.85729 -4.85191
O 2.24638 9.77915 4.97525
O 4.14621 1.31903 0.171189
O -3.47302 6.97533 5.35591
O 0.274042 9.20929 -6.42524
O -8.48401 3.47894 -5.97935
O 4.60989 2.75212 2.27013
O -0.720011 7.07324 -7.59949
O -8.05108 -5.074 4.09823
O -5.56592 1.78685 -9.37002
O -1.48776 9.84815 5.58365
O 8.89101 -8.33543 3.85027
O -6.86712 3.50527 -7.98257
O 3.61634 -10.0999 2.91495
O -7.81506 4.36623 5.5214
O 9.18604 -2.58962 -4.03587
O 2.59209 -3.04132 7.9277
O 8.21275 -4.43118 -2.7785
O -3.49123 -7.19232 -0.900158
O -9.34953 8.69446 -5.94674
O 10.342 4.04259 -4.7696
O -10.2064 3.26691 -10.0473
O 5.08232 -2.42259 8.19939
O -0.416528 9.87759 -1.93755
O 2.08168 -1.1201 6.29267
O -8.14568 -2.15221 2.50569
O 7.64 -1.90751 -8.46512
O -2.67209 5.20859 -5.11045
O -3.21139 -9.35486 6.20594
O 6.13298 7.07236 0.139275
O -5.89127 -9.05089 5.62592
O 7.47992 -4.69159 8.70598
O -8.64707 -5.30375 -3.58501
O -7.57512 7.74203 1.91883
O 8.95959 3.07764 3.62889
O 4.64103 -0.532567 9.87672
O -8.29541 -6.04939 1.67351
O 10.2188 -7.7234 5.90129
O -5.13231 -7.27518 -5.80541
O 3.62 -1.91827 1.23691
O -7.81336 8.71458 4.57791
O -8.66971 -5.21049 -0.831963
O 3.39247 -3.96408 -3.61066
O 8.60317 9.28132 -2.39106
O -6.68189 -0.551607 -2.10367
O -6.26703 -2.94042 4.59824
O -6.39933 -4.77871 0.313659
O 10.1851 1.76592 5.48322
O 7.60554 7.18615 -8.45272
O -4.46402 -5.12562 7.15469
O -4.64868 6.91092 -0.774831
O 7.83279 -8.93137 6.28806
O 4.02766 -6.04782 -2.06681
O -0.241547 -9.19923 -5.8486
O -1.26864 7.4114 -5.15483
O -3.33401 -0.833031 -2.92446
O 8.99084 -6.07894 7.21555
O -3.8589 0.508346 1.82454
O -1.05864 -7.20892 -0.319365
O 8.47292 3.04861 -0.0516861
O 6.85491 4.84093 -0.891895
O 10.4745 -1.05918 -5.76863
O 1.46244 -4.79786 3.13382
O 8.43226 9.52123 2.65346
O -2.40628 1.58235 -2.80521
O -3.31403 -5.30606 -4.90131
O -8.95012 -7.81574 -3.16303
O 0.0609403 -1.63882 1.59016
O 9.76097 7.02344 -1.89341
O -0.115557 3.21379 2.14807
O 9.32451 0.390882 3.33324
O -7.5993 5.37149 0.693484
O 6.82317 -4.52229 -5.01942
O -1.63442 6.1253 -2.82813
O 0.143619 7.32075 -1.37876
O 7.31807 0.676591 -7.65897
O 9.71512 -3.24305 9.19944
O -6.47473 1.25417 -7.06282
O -7.34269 4.38005 -3.62588
O 4.85923 -2.64804 3.36469
O -7.04385 -3.25647 -4.56799
O 3.23762 3.87356 -7.24323
O 8.86598 5.53733 8.26148
O 7.33163 4.96925 -4.7468
O 10.1832 7.67527 2.84945
O 6.00935 -6.2432 1.00061
O -1.55731 -9.63744 -3.67742
O 5.74689 2.85483 -4.06296
O -9.47558 9.22079 6.59556
O -0.96486 -10.3241 -8.0577
O -0.485726 4.74825 -0.917283
O 7.85849 -6.99108 -3.01359
O 6.66758 3.78233 4.65054
O 0.408413 -3.90621 5.63984
O 7.52692 2.69243 -6.02992
O 5.43698 3.96022 7.00999
O -3.50462 7.53482 -4.07071
O -0.595698 -7.89833 3.17303
O -2.5204 -8.20347 1.37352
O -8.90538 0.984007 -6.3265
O -7.53934 3.06631 -10.456
O -3.76235 -1.30174 4.12939
O 0.552041 -0.516398 -5.83732
O 1.54326 3.47033 9.19038
O 8.20031 -6.07513 -0.599561
O -5.57611 -1.24305 2.58763
O -9.95732 5.0158 6.9585
O -10.1465 -6.78104 3.2038
O 7.30843 -10.4048 -6.61957
O -8.17714 -1.18218 -8.96791
O -5.56893 -8.57441 3.16936
O 9.16765 -2.58833 4.83807
O 0.538073 5.60175 3.39702
O -3.45742 8.19641 1.17419
O 2.3976 4.20896 1.95609
O -2.1631 -9.46301 -1.04815
O 5.3074 -0.156459 -5.0922
O -2.54267 -2.88721 -4.17036
O -6.77086 -0.565738 -4.5672
O -7.76056 -5.71308 -8.55171
O 9.14828 5.60186 -0.0701483
O -8.65292 2.01044 -8.43672
O -9.56688 -3.41821 -5.12222
O -1.67827 7.77991 7.04428
O 6.3932 -6.17825 6.71863
O 3.3923 1.46001 8.49292
O -4.89192 -7.81292 7.5221
O 2.11845 8.87193 -1.62412
O -7.52462 -7.81617 -6.90046
O 4.48619 -9.22884 5.06891
O -9.76034 5.87023 4.57165
O -2.1303 6.74242 -0.385508
O 3.13223 -10.0219 -5.2211
O -7.21265 -7.26097 -0.321127
O 0.207998 8.02853 2.61587
O 9.61117 1.33149 -6.62928
O -4.80342 8.96931 5.56846
O 1.4949 -1.42311 -3.50691
O -1.46906 -2.10644 5.35087
O -5.55095 -9.73831 -6.56711
O 3.00101 -10.0836 7.06208
O 5.38812 -8.94093 7.44729
O 6.45155 5.30034 8.92834
O 5.59999 -8.19199 -2.87583
O -3.38405 8.84453 3.46921
O 5.26028 6.02546 -7.87288
O 4.1923 9.81783 -2.90191
O 7.66432 -9.0549 -4.43843
O 9.55753 -10.2574 -0.399883
O 4.00444 2.9003 5.21698
O -10.458 -6.73839 -4.78891
O 5.6152 8.68704 -7.58141
O 4.02994 5.17315 3.46952
O 1.76479 -9.89586 -7.3506
O -7.49677 1.73711 -3.13056
O -7.20072 3.43643 -1.1357
O -0.789238 -4.92106 -3.88619
O -9.33254 -1.54361 8.74469
O -1.5161 1.21009 0.802174
O -9.15 -2.95509 5.02213
O 4.27289 -2.97023 5.77408
O -3.79553 5.51746 1.21489
O -7.48766 0.440456 2.4244
O -6.98514 -1.23654 0.401934
O -1.62303 -0.399035 3.30455
O -5.70586 -0.778628 -8.73227
O -2.51987 -9.3042 3.83562
O -0.968182 -4.94234 3.91721
O 6.21434 1.57851 6.00376
O -6.50608 9.96071 2.76833
O 1.19411 6.87315 -5.67444
O 9.03743 4.11973 -2.33398
O -6.72861 1.99885 6.06206
O -7.70492 -7.60142 3.82135
O -4.90296 4.35282 -4.70382
O 1.86574 3.36794 6.76539
O -6.471 -9.35171 0.786526
O 0.698443 2.57073 -0.147364
O -4.02846 0.775581 -7.53088
O 7.33053 -10.3121 8.42847
O 1.75799 -3.16435 -5.42028
O -3.83929 -4.05437 0.0852274
O -2.03018 -3.84531 6.96959
O 3.48502 -5.15806 -5.97261
O 3.65531 6.05378 -5.86557
O 8.4274 -6.38636 2.05855
O 10.4223 -3.37103 -1.77822
O 5.05201 7.04653 5.11517
O 0.779629 -6.51517 4.93074
O 9.51011 -3.63149 -9.20482
O -7.11782 2.65425 3.66559
O 5.91633 -2.45563 0.184515
O -5.67714 7.66766 3.70432
O 4.0946 1.57763 -2.44851
O 3.86283 4.11223 -3.01473
O -7.35759 -9.36532 -1.91936
O -6.8672 -6.03152 7.87191
O 8.80269 6.1336 -6.61275
O -4.99296 1.03749 -3.13897
O 3.31139 2.44383 -4.95547
O -8.92469 -4.16943 8.69575
O -5.70891 -2.79621 -1.14439
O -2.5229 -7.78593 -5.31392
O 9.66648 10.3263 -5.22779
O -2.14419 8.51502 -9.04808
O -3.80851 1.85874 4.99315
O 0.571378 -6.06154 -1.86562
O 3.9252 -3.48262 -1.06334
O -0.603883 -8.77894 5.4205
O 8.94832 9.15366 7.26781
O 1.61379 5.64997 7.8489
O 6.04461 8.83911 1.97874
O 4.72065 -7.74787 2.70773
O 0.466446 -1.92271 -1.02988
O 2.12588 0.0737041 -1.39646
O -5.52469 8.53709 -6.7109
O -2.50587 3.9997 5.31764
O 6.88588 8.59156 4.46881
O 5.74196 -6.24329 -6.54382
O -9.8638 0.675193 7.71996
O 0.708647 -0.70768 4.11739
O -1.49509 9.82932 1.86015
O -6.87747 -8.79785 -4.56743
O -3.00873 9.48814 -2.57708
O -3.25011 -1.98585 1.6158
O -10.264 10.0325 1.64006
O 7.67564 -4.14238 0.911421
O -9.89011 -6.62173 -7.22749
O 10.4828 -1.36997 1.85073
O -4.79369 10.486 7.62008
O 1.72301 -8.84595 4.14215
O 9.28773 8.16757 0.527883
O 7.28292 -0.900254 5.59476
O -4.699 0.729503 7.14884
O 0.103974 -2.25565 7.55435
O 4.2502 -6.85027 -4.44019
O -8.16914 -2.65551 -1.434
O 7.20046 -2.11807 9.47222
O 7.4142 -7.55761 8.49947
O 10.4269 7.44412 -7.87985
O 5.7351 -4.37855 -2.5448
O -9.33024 -6.00699 7.06692
O 4.84235 -5.16799 4.90488
O -0.446456 1.50381 -4.6425
O -5.69003 3.83623 1.03999
O 7.26304 -4.38015 -7.68291
O 2.51551 7.25531 3.77419
O 6.25848 -10.0336 3.31268
O 9.75363 -10.3543 5.38082
O -6.76009 8.8035 7.03119
O 4.41896 -0.878332 -1.00645
O 8.68903 2.87802 -8.42631
O 7.63231 -9.34268 -1.84486
O -6.61896 -2.08922 -6.84369
O 5.41279 4.14716 -6.22545
O 8.6367 7.27467 -4.277
O 2.08155 1.17439 5.22534
O 3.05821 8.44727 -4.86658
O -4.289 7.78684 7.67745
O 2.19251 -0.752293 8.91673
O -0.552078 4.12385 7.29184
O 1.03358 -6.08688 0.788418
O -0.305206 -7.42021 -3.93693
O 1.60022 -5.62778 -4.33825
O 1.4879 3.40144 4.24842
O 8.9688 0.693543 0.835609
O -4.08847 -7.07266 -3.41387
O -9.48384 -3.25277 0.531617
O -9.36496 6.06168 -6.04629
O -9.12705 -4.10269 -10.0866
O 8.73019 5.72089 3.92234
O -5.24202 6.31708 -8.05005
O -8.01566 2.76762 1.24068
O 3.04474 -1.01032 -5.76224
O -9.27022 0.797441 -10.4804
O -8.19039 6.85816 6.24519
O -4.79431 -1.88978 -4.84888
O 1.05244 10.2728 2.69845
O 0.583768 9.26079 0.363281
O 7.42189 7.88429 8.99638
O 0.0736154 7.64895 5.15085
O 4.32432 -4.85232 7.3962
O 6.30418 -0.247255 7.93648
O -3.33486 9.99562 -7.29202
O -10.3687 -0.281712 -8.28011
O 3.42823 -5.61268 1.55844
O 2.9915 5.86691 5.78306
O -3.93098 4.3456 -7.2159
O -2.70235 5.44698 7.3559
O -1.30093 -3.33659 0.463831
O -10.2267 -1.7028 -10.4144
O -3.32586 -4.61203 4.90613
O 6.74358 -3.42732 4.91715
O 8.78113 4.28425 5.90476
O -8.99535 -9.2794 0.0594396
O 8.55148 -6.04339 -6.30047
O 6.63681 7.06523 -6.00677
O -7.33595 -0.105475 7.56802
O -10.324 -3.60925 3.01362
O 4.26744 5.92854 -1.31668
O 9.78721 7.94114 5.13047
O 0.716974 0.790522 2.01779
O -8.89172 -10.2512 -4.16422
O 4.58071 8.96797 -0.364498
O 9.69342 1.79117 -3.13721
O 5.33046 9.77325 -5.27695
O 9.31984 5.36935 -9.16266
O -7.73229 7.34975 -7.45836
O 4.15561 6.01271 8.06801
O -3.39596 2.89146 0.62912
O 1.84556 4.5192 -1.6728
O 7.85913 0.887129 -1.37278
O -2.84101 5.92234 -8.9348
O 8.54058 0.748855 7.06052
O 6.51468 1.5506 0.819311
O 0.693396 9.37845 6.90196
O 3.16365 -10.1524 -0.57174
O 1.30174 -8.24934 -0.502204
O -4.34264 -2.60335 6.18392
O 2.80734 8.08904 7.01004
O 4.91569 -0.0341505 2.27958
O 3.81753 1.2082 -6.97529
O -2.90926 -4.35574 2.35749
O 8.11729 -2.72843 7.16252
O -1.34914 0.961317 -6.87443
O -3.64443 0.744444 -0.784465
O -2.79159 -6.72519 3.4832
O 3.93529 -7.25486 6.55361
O -5.82855 -6.69422 5.47733
O -0.20067 0.181073 -2.40051
O -6.04039 6.21884 -2.93398
O -5.08385 4.34059 -9.6635
O 9.91869 -8.48107 1.52445
O -2.97376 -0.245634 -5.34827
O 0.0891717 2.7354 -2.51333
O -7.99485 -5.2114 -6.10977
O 3.88029 -7.70709 0.178272
