585
Atoms. Timestep: 1790001
Si -0.577371 3.91431 8.64114
O 0.205466 4.82201 7.50525
H 0.66322 4.29434 6.86141
Si 5.18595 -9.34358 -9.30986
O 5.29451 -9.73844 -10.9888
H 6.08372 -10.2241 -11.1979
Si 2.23738 -10.2505 -10.1851
O 2.58216 -9.32272 -11.5222
H 3.51323 -9.24896 -11.6958
Si 6.5197 1.2324 -9.69006
O 6.84157 1.31571 -11.3445
H 7.60976 0.851413 -11.6556
Si 1.13968 1.73282 9.39367
O 2.40293 1.71062 10.5375
H 2.59915 2.58541 10.8517
Si 8.32136 -1.09803 -8.43164
O 9.60802 -1.05854 -9.55504
H 10.3646 -1.57188 -9.29701
Si 3.16289 -7.40108 8.56277
Si 4.19818 -5.03093 8.94859
Si -4.63485 -4.7343 -5.83507
Si 5.34583 -2.48861 -2.83291
Si 3.0695 10.1308 -7.50689
Si 2.63254 -0.562853 -6.65798
Si 2.35551 -7.55464 2.38543
Si 3.87842 4.71204 -4.74814
Si -0.783428 -0.202977 3.37064
Si 10.2814 2.82051 -1.59555
Si -0.130932 -0.916116 8.71974
Si -9.76927 2.95437 1.41602
Si -6.04023 -7.12479 2.35004
Si 0.0651061 -4.6156 6.15233
Si -8.37428 6.38487 8.53912
Si -10.3026 8.26943 5.31084
Si 1.55833 8.27458 -2.24582
Si -9.4984 -5.24401 -4.00599
Si -5.91088 7.39633 3.52483
Si -4.18973 4.55594 -1.78301
Si -1.45945 6.14499 -5.65759
Si -0.526866 -9.49036 -8.78645
Si -3.30985 6.47323 -8.25534
Si -0.377723 -4.28167 -3.77539
Si -2.80816 3.551 -8.60931
Si 0.3098 -4.3989 -7.93555
Si 9.16849 6.88618 -3.11122
Si 9.19813 -8.63378 -1.40959
Si -6.36452 -9.01833 4.61622
Si 8.57694 3.22713 -5.47856
Si 4.77993 8.96045 -2.94187
Si -4.58465 10.0561 2.86048
Si 8.43735 6.35292 4.26401
Si -0.80344 -1.79788 -8.82263
Si 2.18572 -9.11592 5.1461
Si 5.32268 7.24252 -0.499248
Si 7.30524 3.80052 -8.01868
Si -3.45813 9.30618 0.275529
Si -2.99296 -1.17275 7.88714
Si -8.58347 5.76142 5.57357
Si -6.13101 4.56572 3.95686
Si -5.53068 6.25497 8.79354
Si 3.48475 -3.0859 -0.563918
Si 9.9588 -2.23569 -1.3472
Si 9.64343 -9.37278 8.24922
Si 7.50063 10.345 -7.5336
Si 6.98102 -10.0971 6.50209
Si -5.03834 -6.86513 -2.424
Si -6.64766 2.24157 1.70832
Si -1.28616 8.71899 -8.55695
Si -6.83992 -6.68213 -5.08276
Si 4.92708 3.51616 5.91529
Si 5.3831 -6.48376 -7.92742
Si 3.02638 1.7841 -1.56462
Si 1.73648 8.00517 -9.32719
Si -2.12849 -9.28964 3.9857
Si -2.75825 -7.38237 -5.63457
Si -5.55995 1.74045 -1.08516
Si -0.323738 -10.4769 -3.33219
Si -8.08627 2.26135 -2.85098
Si -6.81612 2.16824 -5.59572
Si 3.08789 -5.05121 -6.49578
Si -9.64992 -3.03586 6.02022
Si 1.55098 -6.62813 -4.59392
Si -9.30878 -4.41668 8.72845
Si -2.83569 2.05608 3.99749
Si 2.65673 1.62738 6.59004
Si -9.82976 -7.39278 3.43113
Si -10.3276 4.21541 7.53464
Si -5.7196 -3.87726 -1.41438
Si -8.30214 8.23338 1.51543
Si 10.0262 -2.22301 1.85697
Si -7.67576 9.91645 -1.04207
Si 3.72075 -1.35261 6.16044
Si -4.35928 -10.1034 -5.09834
Si -9.69695 1.09331 7.73143
Si -2.73657 6.22005 0.425024
Si -2.11325 8.98385 -5.50675
Si 5.82924 0.343439 -1.60416
Si -8.56924 -0.15878 -4.70322
Si 9.6101 0.592623 2.75233
Si -9.17767 -4.70968 1.67548
Si 9.63346 8.46173 -7.43359
Si -2.05973 -2.42014 5.16097
Si 2.35883 -7.57988 -1.66688
Si -7.24792 -7.98138 -0.385753
Si -4.93297 9.45823 -2.52776
Si -4.65235 -2.61652 3.55728
Si -7.52165 -9.64434 -5.32683
Si 8.68441 0.340727 -2.74846
Si 0.955738 -9.21744 -5.98783
Si -1.94829 -9.43641 7.17217
Si -2.49739 6.17393 8.72741
Si -1.74017 -0.60745 -5.97892
Si 7.22581 -3.83308 -7.44742
Si 0.395598 5.818 -0.376051
Si -5.84125 6.62117 -3.66405
Si -4.92489 -8.28678 7.29769
Si -9.96048 -6.36369 -0.990193
Si 5.05163 5.71992 -7.13005
Si -9.91948 10.5008 2.99088
Si -8.27784 4.68765 -6.68845
Si 8.36752 7.51141 -0.110681
Si 3.53328 -3.42448 3.91271
Si 3.48703 2.09659 -9.37658
Si 4.07411 -6.07851 0.330916
Si -7.06235 -6.08509 7.51634
Si -8.86648 6.64454 -4.23099
Si -2.64995 2.03275 7.13358
Si 9.74491 5.32508 -7.35713
Si -5.99366 -1.43444 8.01341
Si 5.5774 -2.51847 1.63161
Si 9.49415 -6.3478 8.53924
Si -2.64703 -4.10054 -8.14845
Si 1.30831 -0.848738 -1.22132
Si 8.70407 10.4836 1.0007
Si -6.80351 1.13474 6.50399
Si 6.01442 -7.97489 4.36373
Si 1.81138 9.20204 6.33522
Si 2.62899 2.29301 -6.286
Si 8.69676 -5.55388 -5.22649
Si 6.52349 8.66871 4.3633
Si -1.28883 -9.60216 1.21311
Si -3.15816 -2.69119 -4.0686
Si -6.12287 -4.2329 1.59914
Si -8.29146 -2.64921 -2.89124
Si 4.63972 -5.6821 5.9647
Si 1.93673 -3.01909 8.15841
Si -1.42754 -4.57933 1.35748
Si -1.44895 -6.65972 -8.54771
Si 6.90971 -1.86561 6.25513
Si -6.75754 -3.57163 5.6708
Si -5.50451 8.07007 6.32116
Si 6.92423 -4.49622 7.85355
Si 6.82161 -9.67197 -3.30649
Si 0.986408 0.458578 -9.21417
Si 4.02729 -10.0466 7.2602
Si -6.96296 -10.317 7.04865
Si 8.35491 -6.18646 3.15635
Si -2.19286 5.09015 3.29399
Si 7.9119 -4.3157 -2.44982
Si 3.62048 8.0432 4.12477
Si 1.66305 1.65129 3.58563
Si -9.71164 -10.1858 -2.96829
Si 2.6617 5.02177 -9.12688
Si 1.60288 -9.74417 0.197723
Si 7.0059 -5.04782 0.448469
Si -2.06021 3.6225 -3.81303
Si 9.58843 0.308382 -5.77071
Si 0.748099 -1.39499 -4.36735
Si -3.01932 -7.20613 2.03605
Si 8.76573 0.698934 5.83411
Si 7.95218 3.84009 6.16659
Si 4.63238 2.34189 3.0619
Si 4.79063 -2.41008 -5.95734
Si 10.3477 6.01311 1.72388
Si 7.80439 4.15376 -2.65126
Si 9.05686 9.40383 -4.53208
Si -8.4886 8.75819 -6.62907
Si 3.73543 5.07997 3.61473
Si 0.752209 3.66383 -2.64728
Si 1.0127 -4.93539 3.26462
Si -6.04128 6.76317 -6.86825
Si -9.62115 -7.50902 6.59127
Si -1.02339 8.5644 7.42445
Si 0.285 3.24974 -7.92195
Si -2.65602 6.79021 5.79854
Si -8.95347 -1.51742 8.66108
Si 0.40907 -7.43123 7.26881
Si 5.94235 -10.1991 2.19841
Si -5.56423 0.413348 3.76261
Si 5.35742 8.63301 -6.10393
Si -0.13354 -5.88283 -1.16377
Si -5.23273 3.78009 6.78957
Si -2.02083 -7.87529 -2.70843
Si 6.6165 0.384175 1.53914
Si 7.1429 -8.14428 -5.88367
Si 3.58864 9.22699 1.22553
Si 8.74112 -3.34073 4.25367
Si -1.46807 -1.57984 0.510631
Si -3.61757 2.06761 -6.01685
Si 1.30991 6.14091 -4.58673
Si -4.05029 -1.12322 -1.35835
Si -9.46431 9.27323 8.25946
Si 4.70969 4.46188 -1.77328
Si 0.864182 4.57494 2.62952
O 3.9204 -6.42971 9.58989
O -4.75632 3.13648 -1.50304
O 9.2657 -0.883392 -1.94286
O 0.303822 -3.01402 -8.71668
O 4.92797 1.33701 -9.53753
O 6.69478 -3.34179 -2.82563
O -8.20678 2.58776 1.35626
O -5.97404 9.56722 6.44919
O 9.58959 1.90987 -5.70552
O -9.04701 -3.76024 -3.79438
O -8.65857 -7.34769 -0.863654
O 2.40789 8.76525 -7.99956
O 0.137084 -0.602847 7.19135
O -3.39166 -8.73038 7.59641
O -9.23217 -6.001 2.64555
O 3.66598 -10.0659 -8.97667
O 4.13635 4.73271 -3.19917
O -2.98209 2.57928 -4.62091
O -7.03539 -3.45715 -2.26878
O 2.85901 5.90014 -5.05477
O -2.16754 -8.22978 1.01639
O 5.60476 -10.3056 7.28644
O -4.30882 -3.64294 -4.66094
O -6.82352 -5.06471 6.33236
O -7.14663 2.69416 -4.06761
O 10.1037 0.669257 6.77646
O 0.942055 -2.14471 9.04106
O -0.564784 4.94934 3.18534
O -6.07545 -7.44752 -1.29503
O 0.502673 8.67164 7.12301
O -7.25524 -9.58708 -0.485541
O -10.4715 -5.44871 9.2974
O -8.26487 -3.26068 5.23477
O -1.78583 1.02604 3.38102
O -8.97227 7.82529 8.84273
O -0.500088 -0.527483 -4.91874
O 9.01382 3.78109 -1.6317
O -4.54015 9.9176 1.26901
O 10.4553 1.99021 2.42909
O -6.0336 0.100544 7.48019
O -8.91021 9.66528 2.11588
O 8.18985 4.89831 4.99069
O 9.35765 7.36642 5.11994
O -0.69101 -8.46876 7.65603
O -10.2478 2.6652 -0.0801771
O -3.30699 -10.2454 3.43478
O 10.2742 -9.03837 -2.5271
O -2.47617 -5.48715 -9.02141
O 3.143 8.71666 -2.50656
O 5.16477 -7.71112 -9.0244
O 4.07706 6.64893 3.45481
O 5.51875 10.3928 -2.90605
O 3.6294 -9.36041 5.84455
O 1.87233 2.49466 -2.4895
O 4.73663 10.3071 1.37125
O -7.06912 1.78497 -1.66884
O 0.151091 6.37876 -5.63825
O -1.23572 -9.31794 -2.59205
O -9.45719 7.08117 1.57955
O -4.32552 1.4514 3.75239
O -6.31933 -2.51518 6.82548
O 1.43904 10.478 5.42013
O -10.1583 8.83073 6.82871
O -9.76287 8.47059 -7.54506
O 4.75749 5.76769 -0.871815
O -9.40727 -8.94519 3.17391
O -1.64246 4.9214 9.29994
O -8.88731 7.858 -5.30804
O 5.64071 -5.84306 0.40847
O -0.112797 -4.70671 -2.27932
O -7.76024 8.77549 0.0938315
O -8.13478 10.1001 7.93052
O -6.00196 -10.1379 -5.28204
O 10.0675 -3.0281 5.14898
O 7.9475 -5.65945 1.66733
O -1.18213 -3.65614 5.76701
O 1.00201 -9.70534 -9.36183
O -6.41059 0.570157 5.07974
O -0.214582 -9.3453 -7.17401
O -3.39004 -1.62748 -2.88018
O -6.00084 -4.49132 0.0239862
O -3.55534 3.14679 -7.22791
O -1.66661 -1.49872 8.66177
O 9.34238 -9.70641 -0.216364
O -9.30965 7.03303 4.98945
O -0.149987 -1.27912 -0.511793
O 1.90732 -1.40093 -5.50649
O 6.07079 -7.39221 -6.78862
O 5.16558 7.29466 -6.925
O 8.14273 -5.49314 8.25419
O 9.25396 -3.42678 -2.18162
O -10.261 6.66713 -3.44803
O 3.22893 1.61492 3.1319
O -1.20236 -4.26346 -7.28624
O -8.80866 0.976697 -3.53251
O 0.0175315 -9.73765 0.344664
O -9.93294 -5.82443 -2.49975
O 7.40612 3.0931 -6.55519
O 10.2006 -6.55091 7.11262
O -9.06775 10.0888 -1.7665
O -1.82233 -7.56327 -4.31695
O -9.49973 -2.30519 -1.73626
O -9.58087 5.27962 8.54332
O 0.20776 0.422312 9.55525
O 7.0611 2.60525 -9.06626
O 8.30905 -7.04749 -5.56343
O 3.79217 2.78723 6.76944
O 7.20356 -2.96419 7.39901
O 8.64415 -4.95205 4.02851
O 0.403114 3.10595 9.54653
O -8.47779 -9.63962 -3.90174
O -3.70496 -8.73746 -5.56626
O 2.07576 9.22217 -10.2938
O 3.92023 -5.95234 -7.52172
O 4.36304 9.79584 -6.63786
O 2.90568 -4.046 8.8782
O -1.72131 4.83719 -4.81827
O 3.29663 0.181907 6.29701
O 8.64544 7.91428 -4.16659
O 4.4397 1.07788 -1.93995
O 3.30866 -2.06838 4.80525
O -5.06557 -3.2003 2.05982
O 6.18702 -2.87202 -6.62379
O -10.129 9.52618 4.30475
O 4.24052 8.03625 0.390046
O -7.07549 5.5947 -7.30213
O 2.38046 6.56345 -9.60654
O 7.95048 -2.62464 -8.30172
O -2.71694 0.696519 -6.11307
O -5.59529 7.58685 7.83525
O 4.10024 -1.25542 -6.81605
O -2.18237 7.45656 -5.0094
O -1.68041 -3.12 0.785523
O -2.45673 2.0432 5.53323
O -7.60759 4.97983 4.61092
O 1.15181 -3.84784 7.02802
O 1.83545 2.03655 5.20615
O 8.11457 -5.29089 -3.72427
O -1.17292 6.08116 -0.25849
O 2.1274 -7.325 -3.24651
O -7.44104 -9.47525 5.69816
O 5.9894 -5.12761 6.61982
O 9.1004 4.22901 7.32935
O -2.94445 -1.95372 6.45171
O 3.87917 3.20889 -1.15037
O -6.05936 -5.52724 -5.9278
O -8.68123 5.35414 -5.23279
O -7.3965 -1.44659 8.88711
O 7.16811 0.755334 -2.50624
O -3.09464 7.73233 0.553946
O 2.96323 9.75498 7.41778
O 2.32459 1.12225 -9.88646
O 1.27679 4.3581 -8.61469
O -2.60546 -7.77701 3.54951
O 9.64337 -7.1035 3.1337
O -0.632278 3.10004 -3.24106
O -3.46735 9.72882 -5.77181
O -5.97746 -9.39833 7.96205
O -4.92087 -2.43469 -1.20701
O -9.6547 -4.15706 7.19535
O 9.65477 1.48328 -2.22452
O -3.35754 5.01368 -8.92368
O -9.66295 4.6784 6.18713
O 8.64129 9.50354 -8.32278
O -9.61138 -5.27769 0.203492
O 4.77734 -3.11853 2.91058
O 6.37066 3.79569 6.59972
O -4.84297 0.286413 -1.26326
O 2.20477 -3.87511 3.14492
O -1.90452 -9.47529 5.53917
O -2.6769 5.6204 1.86514
O 9.19906 0.429461 4.28277
O -10.2404 -8.93957 7.14272
O 2.46172 8.19603 5.22568
O 9.34916 6.31217 0.451302
O -1.18097 -8.11851 -9.21526
O -3.17528 -2.7844 4.04598
O -9.43814 3.17802 -2.41821
O 3.91115 -6.05852 7.45777
O 8.22238 2.22833 5.85659
O -2.34406 6.15654 -7.0437
O 2.1914 -9.97527 -6.62238
O 7.72187 -0.463821 6.22096
O 8.26459 -9.85116 7.41272
O -1.61605 7.60179 8.5902
O -6.28 3.38862 2.85424
O -1.0921 -1.35232 4.40889
O 9.24145 4.62619 -5.96213
O 5.30798 -1.57726 6.28947
O -1.22816 -6.88958 -1.79734
O 0.335742 1.82754 -8.65353
O 0.635813 4.54221 -1.29877
O -1.28152 8.94092 -6.89515
O 2.16284 0.565893 -0.913393
O -9.63089 -0.0862479 8.86621
O -7.02794 -7.54683 1.13854
O 7.93449 10.3713 -3.9379
O 3.73087 -8.81222 8.27353
O -0.211224 -5.9988 6.95222
O 8.83195 -0.000866659 -4.32571
O 8.72135 4.47637 -8.28422
O 0.609007 9.5643 -2.36781
O 8.84157 -2.58877 2.83303
O 8.11702 -4.60806 -6.40882
O -1.27108 10.1944 -9.07026
O 6.32963 4.06258 -2.04104
O -0.157217 -0.588617 -9.68817
O -2.74719 3.55403 3.44966
O 6.54634 -3.56226 0.91499
O 2.10178 5.01793 3.50196
O 1.19474 -7.67118 -5.73654
O -4.72091 6.94756 -7.66392
O -5.7539 2.08454 0.46526
O 1.78571 1.75849 7.93431
O 7.76741 -9.39314 -6.67219
O 0.363128 -2.91671 -4.16635
O 1.75427 -0.33487 -7.96904
O 4.23673 -3.28824 -2.02394
O -8.295 0.939741 6.90646
O -0.0372296 -5.84175 -8.61611
O 5.6531 -4.46918 8.8665
O -5.25659 2.0515 -5.88275
O -9.87078 2.66204 8.00614
O -7.89127 6.2594 7.01972
O 0.922707 5.33833 1.11771
O 7.69361 -8.95305 -2.11007
O 9.7007 -10.4545 2.2099
O 2.18969 -2.14756 -0.839915
O 4.96583 -7.00335 5.08897
O 5.12115 2.55726 4.61236
O 8.86621 -0.398176 -7.05776
O 6.44736 -8.74848 -4.4962
O -1.17465 -1.11739 -7.39179
O -9.38133 -2.95064 9.32695
O 6.45513 9.48114 2.983
O -7.62753 3.25457 -6.46144
O 4.94115 -2.10633 -4.33046
O 9.70186 -7.23083 -0.834022
O -0.566991 -5.25658 0.193447
O 7.26542 -9.86114 1.3584
O -7.7078 -4.00047 1.79609
O -5.23014 4.32919 5.28072
O 3.31546 3.29005 -5.28039
O -1.1743 -0.864446 1.89526
O 2.74632 0.811473 -5.90287
O -6.42313 2.6949 6.67866
O -6.99654 6.11791 9.42328
O -9.30935 -1.88472 7.10155
O -7.5008 0.688194 -5.56817
O 0.300516 -5.53148 -4.51082
O -1.3482 9.79093 -4.34523
O 7.14111 7.21322 4.0978
O 4.45766 -2.23612 0.487821
O -3.97488 7.61988 5.94717
O -8.02391 -1.44801 -3.85605
O -4.96151 -5.22088 -2.13032
O -10.1986 4.48573 1.69701
O -5.79751 -5.57071 2.40921
O 3.4388 -4.58238 0.0453833
O 6.36647 -5.17205 -8.02476
O 3.9161 -4.5928 5.00232
O -2.43706 7.72276 -8.96693
O -1.631 10.0666 7.59837
O 7.4614 -2.70871 4.98053
O -4.46191 -1.56074 8.53215
O -5.69024 -6.91618 7.64294
O -4.29635 -10.47 -3.54415
O -2.76004 -1.07529 -0.37149
O 3.33348 3.66265 -9.82917
O -5.18376 5.47425 -2.75859
O -4.801 8.51834 3.28219
O 2.83637 -5.74185 -5.07705
O 9.342 6.89607 -7.34623
O -3.97108 -4.15748 -7.21093
O -1.98181 -7.2107 -7.04804
O 4.21434 4.80601 5.1435
O -2.93046 0.434794 7.55266
O 0.674539 -9.80232 -4.51743
O 6.30821 0.528496 -0.104903
O -5.56812 5.87093 3.28747
O 1.69423 -4.5888 -7.14757
O -7.31293 -8.04983 -5.72779
O -4.55873 -7.60308 1.98446
O -8.26448 -7.10031 7.22077
O -0.351265 -4.50395 2.55298
O -6.59301 -7.7505 3.71391
O 4.28368 3.94297 2.68244
O 9.32854 6.22976 2.95281
O 10.3816 9.8071 -3.76845
O 5.73834 1.44184 2.32929
O 6.20463 4.94936 -7.97821
O 1.20287 -0.825233 -2.8726
O 10.4468 10.3558 8.93014
O 5.05073 8.53008 -4.50553
O -2.16706 10.1487 0.748526
O 0.163397 8.02424 -8.94492
O 2.16207 -9.0989 -1.19657
O 6.66337 -8.86283 5.52417
O -5.08521 8.01176 -3.30243
O 3.22727 8.9975 2.81762
O -10.1353 -3.5142 2.10664
O -0.970791 -9.60708 2.85725
O 2.36182 -8.45237 3.71485
O 1.08639 2.85951 -6.60554
O -9.6533 4.99371 -7.48728
O 5.50338 -9.01729 3.20146
O -3.98936 2.90041 7.19154
O 8.02906 3.32294 -3.98048
O -5.84514 -10.1302 3.58082
O -5.63315 -3.4299 4.52017
O -1.92417 -3.73043 -3.82787
O 1.14205 7.17596 -1.00171
O 7.18625 -0.126443 -9.01898
O -2.63879 5.89617 7.12962
O 6.21371 -1.10799 1.92067
O 8.18954 0.577159 1.861
O -8.29633 10.32 -6.32085
O -2.91704 4.33997 -2.64704
O -7.87713 -5.18729 8.63992
O 1.25316 7.37475 -3.5776
O 1.01792 2.92397 2.70785
O -6.61899 0.869184 2.57432
O 5.51968 8.0578 -1.87548
O -2.62113 -1.81997 -5.33676
O 10.4628 -0.717903 2.23521
O -4.06269 9.2965 -1.21135
O 5.60605 -1.19029 -1.99644
O 9.29319 -7.92525 8.92656
O 8.19022 5.63237 -3.04039
O -1.24983 3.73784 -7.98284
O -5.80795 -7.0687 -3.81674
O -8.18616 -5.99263 -4.48437
O -7.00921 8.08854 -6.9494
O -2.55272 5.95737 4.48953
O -1.52251 7.92502 6.04979
O -5.05468 -1.09522 3.60282
O 3.85238 -3.7249 -6.16886
O 7.58695 -4.94345 -1.01747
O 7.07116 -6.97054 3.6821
O -3.8894 5.4117 -0.405025
O 8.87236 7.57481 -1.68107
O -3.98747 6.32582 9.35541
O 1.3687 -8.08205 6.06679
O 3.53161 -6.66002 1.78973
O 8.63207 8.90003 0.616951
O -3.60769 -5.97079 -5.53528
O 6.81444 7.1423 0.0796013
O 9.47732 9.40248 -6.12061
O 6.38324 -10.0828 -8.59998
O -7.43444 6.73026 -3.52164
O -5.18406 -8.5723 5.69646
O -7.11041 7.79075 2.48506
O 6.75789 9.27784 -6.5548
O -2.19465 -2.73822 -8.91035
O 1.26228 -6.63539 -0.981715
O -3.61916 -7.58359 -2.48613
O 3.69257 5.33293 -7.91345
O -5.68526 6.46734 -5.29607
O -6.45678 9.64354 -2.06397
O -2.9307 2.38329 -9.59937
O 5.1635 4.98749 -5.67769
O -1.4588 2.73671 7.87959
O 1.28756 -6.37205 2.67356
O 2.04677 -8.53086 1.20225
O 2.2899 9.85877 0.497747
O -6.31625 7.5092 5.06928
O 10.3002 -5.35991 -5.05461
O 1.6241 -7.29105 8.35253
O 2.99161 -2.15853 7.33581
O 3.72898 -7.04169 -0.961289
O 9.67131 -2.30167 0.279027
O -5.43997 4.95096 7.86676
O 1.11893 4.75265 -3.73231
O -9.51309 -7.27477 5.00424
O 3.28241 2.2744 -7.77715
O -9.9334 -0.381462 -5.5492
O -2.56865 -5.69962 1.6809
O 4.99578 8.55878 4.8734
O 0.700025 0.339468 3.4193
O 0.794164 -5.07118 4.83625
O 7.14502 9.66238 5.48801
