 Entering Gaussian System, Link 0=g16
 Input=1_b_P.com
 Output=1_b_P.log
 Initial command:
 /share/apps/gaussian/g16/l1.exe "/scratch/cakim2/431432/Gau-1599.inp" -scrdir="/scratch/cakim2/431432/"
 Entering Link 1 = /share/apps/gaussian/g16/l1.exe PID=      1607.
  
 Copyright (c) 1988-2019, Gaussian, Inc.  All Rights Reserved.
  
 This is part of the Gaussian(R) 16 program.  It is based on
 the Gaussian(R) 09 system (copyright 2009, Gaussian, Inc.),
 the Gaussian(R) 03 system (copyright 2003, Gaussian, Inc.),
 the Gaussian(R) 98 system (copyright 1998, Gaussian, Inc.),
 the Gaussian(R) 94 system (copyright 1995, Gaussian, Inc.),
 the Gaussian 92(TM) system (copyright 1992, Gaussian, Inc.),
 the Gaussian 90(TM) system (copyright 1990, Gaussian, Inc.),
 the Gaussian 88(TM) system (copyright 1988, Gaussian, Inc.),
 the Gaussian 86(TM) system (copyright 1986, Carnegie Mellon
 University), and the Gaussian 82(TM) system (copyright 1983,
 Carnegie Mellon University). Gaussian is a federally registered
 trademark of Gaussian, Inc.
  
 This software contains proprietary and confidential information,
 including trade secrets, belonging to Gaussian, Inc.
  
 This software is provided under written license and may be
 used, copied, transmitted, or stored only in accord with that
 written license.
  
 The following legend is applicable only to US Government
 contracts under FAR:
  
                    RESTRICTED RIGHTS LEGEND
  
 Use, reproduction and disclosure by the US Government is
 subject to restrictions as set forth in subparagraphs (a)
 and (c) of the Commercial Computer Software - Restricted
 Rights clause in FAR 52.227-19.
  
 Gaussian, Inc.
 340 Quinnipiac St., Bldg. 40, Wallingford CT 06492
  
  
 ---------------------------------------------------------------
 Warning -- This program may not be used in any manner that
 competes with the business of Gaussian, Inc. or will provide
 assistance to any competitor of Gaussian, Inc.  The licensee
 of this program is prohibited from giving any competitor of
 Gaussian, Inc. access to this program.  By using this program,
 the user acknowledges that Gaussian, Inc. is engaged in the
 business of creating and licensing software in the field of
 computational chemistry and represents and warrants to the
 licensee that it is not a competitor of Gaussian, Inc. and that
 it will not use this program in any manner prohibited above.
 ---------------------------------------------------------------
  

 Cite this work as:
 Gaussian 16, Revision C.01,
 M. J. Frisch, G. W. Trucks, H. B. Schlegel, G. E. Scuseria, 
 M. A. Robb, J. R. Cheeseman, G. Scalmani, V. Barone, 
 G. A. Petersson, H. Nakatsuji, X. Li, M. Caricato, A. V. Marenich, 
 J. Bloino, B. G. Janesko, R. Gomperts, B. Mennucci, H. P. Hratchian, 
 J. V. Ortiz, A. F. Izmaylov, J. L. Sonnenberg, D. Williams-Young, 
 F. Ding, F. Lipparini, F. Egidi, J. Goings, B. Peng, A. Petrone, 
 T. Henderson, D. Ranasinghe, V. G. Zakrzewski, J. Gao, N. Rega, 
 G. Zheng, W. Liang, M. Hada, M. Ehara, K. Toyota, R. Fukuda, 
 J. Hasegawa, M. Ishida, T. Nakajima, Y. Honda, O. Kitao, H. Nakai, 
 T. Vreven, K. Throssell, J. A. Montgomery, Jr., J. E. Peralta, 
 F. Ogliaro, M. J. Bearpark, J. J. Heyd, E. N. Brothers, K. N. Kudin, 
 V. N. Staroverov, T. A. Keith, R. Kobayashi, J. Normand, 
 K. Raghavachari, A. P. Rendell, J. C. Burant, S. S. Iyengar, 
 J. Tomasi, M. Cossi, J. M. Millam, M. Klene, C. Adamo, R. Cammi, 
 J. W. Ochterski, R. L. Martin, K. Morokuma, O. Farkas, 
 J. B. Foresman, and D. J. Fox, Gaussian, Inc., Wallingford CT, 2019.
 
 ******************************************
 Gaussian 16:  ES64L-G16RevC.01  3-Jul-2019
                 9-Aug-2022 
 ******************************************
 %NProcShared=8
 Will use up to    8 processors via shared memory.
 %chk=Al_F_1_r_P.chk
 -----------------------------------------------------------------
 #P wB97XD/gen nosymm Opt=(MaxCycles=200) freq temp=300 pressure=2
 -----------------------------------------------------------------
 1/6=200,18=20,19=15,26=3,38=1,112=300000,113=2000/1,3;
 2/9=110,12=2,15=1,17=6,18=5,40=1/2;
 3/5=7,11=2,25=1,30=1,71=1,74=-58/1,2,3;
 4//1;
 5/5=2,38=5/2;
 6/7=2,8=2,9=2,10=2,28=1/1;
 7/30=1/1,2,3,16;
 1/6=200,18=20,19=15,26=3/3(2);
 2/9=110,15=1/2;
 99//99;
 2/9=110,15=1/2;
 3/5=7,6=1,11=2,25=1,30=1,71=1,74=-58,82=7/1,2,3;
 4/5=5,16=3,69=1/1;
 5/5=2,38=5/2;
 7/30=1/1,2,3,16;
 1/6=200,18=20,19=15,26=3/3(-5);
 2/9=110,15=1/2;
 6/7=2,8=2,9=2,10=2,19=2,28=1/1;
 99/9=1/99;
 Leave Link    1 at Tue Aug  9 14:37:18 2022, MaxMem=           0 cpu:               0.4 elap:               0.1
 (Enter /share/apps/gaussian/g16/l101.exe)
 --------
 Al_F_1_r
 --------
 Symbolic Z-matrix:
 Charge =  0 Multiplicity = 1
 8                    -1   -0.00015   0.00016   0.00021 
 8                    -1    0.00008   0.00005   2.43347 
 13                   0    -0.02686   1.12737   1.29927 
 1                    -1   -0.32759   0.75118  -0.60824 
 1                    -1    0.09586   0.78442   3.17646 
 9                    -1    1.35602   1.78665   1.16522 
 9                    -1   -1.40289   1.85813   1.21474 
 1                    0    -0.74806  -0.67179   0.16068 
 
 ITRead=  2  2  0  2  2  2  2  0
 MicOpt= -2 -2 -1 -2 -2 -2 -2 -1
 NAtoms=      8 NQM=        2 NQMF=       6 NMMI=      0 NMMIF=      0
                NMic=       0 NMicF=      0.
                    Isotopes and Nuclear Properties:
 (Nuclear quadrupole moments (NQMom) in fm**2, nuclear magnetic moments (NMagM)
  in nuclear magnetons)

  Atom         1           2           3           4           5           6           7           8
 IAtWgt=          16          16          27           1           1          19          19           1
 AtmWgt=  15.9949146  15.9949146  26.9815413   1.0078250   1.0078250  18.9984032  18.9984032   1.0078250
 NucSpn=           0           0           5           1           1           1           1           1
 AtZEff=  -0.0000000  -0.0000000  -0.0000000  -0.0000000  -0.0000000  -0.0000000  -0.0000000  -0.0000000
 NQMom=    0.0000000   0.0000000  14.6600000   0.0000000   0.0000000   0.0000000   0.0000000   0.0000000
 NMagM=    0.0000000   0.0000000   3.6415040   2.7928460   2.7928460   2.6288670   2.6288670   2.7928460
 AtZNuc=   8.0000000   8.0000000  13.0000000   1.0000000   1.0000000   9.0000000   9.0000000   1.0000000
 Leave Link  101 at Tue Aug  9 14:37:18 2022, MaxMem=   104857600 cpu:               0.8 elap:               0.1
 (Enter /share/apps/gaussian/g16/l103.exe)

 GradGradGradGradGradGradGradGradGradGradGradGradGradGradGradGradGradGrad
 Berny optimization.
 Initialization pass.
                           ----------------------------
                           !    Initial Parameters    !
                           ! (Angstroms and Degrees)  !
 --------------------------                            --------------------------
 ! Name  Definition              Value          Derivative Info.                !
 --------------------------------------------------------------------------------
 ! X1    R(1,-1)                -0.0002         Frozen                          !
 ! Y1    R(1,-2)                 0.0002         Frozen                          !
 ! Z1    R(1,-3)                 0.0002         Frozen                          !
 ! X2    R(2,-1)                 0.0001         Frozen                          !
 ! Y2    R(2,-2)                 0.0001         Frozen                          !
 ! Z2    R(2,-3)                 2.4335         Frozen                          !
 ! X4    R(4,-1)                -0.3276         Frozen                          !
 ! Y4    R(4,-2)                 0.7512         Frozen                          !
 ! Z4    R(4,-3)                -0.6082         Frozen                          !
 ! X5    R(5,-1)                 0.0959         Frozen                          !
 ! Y5    R(5,-2)                 0.7844         Frozen                          !
 ! Z5    R(5,-3)                 3.1765         Frozen                          !
 ! X6    R(6,-1)                 1.356          Frozen                          !
 ! Y6    R(6,-2)                 1.7867         Frozen                          !
 ! Z6    R(6,-3)                 1.1652         Frozen                          !
 ! X7    R(7,-1)                -1.4029         Frozen                          !
 ! Y7    R(7,-2)                 1.8581         Frozen                          !
 ! Z7    R(7,-3)                 1.2147         Frozen                          !
 ! R1    R(1,3)                  1.7201         estimate D2E/DX2                !
 ! R2    R(1,8)                  1.0182         estimate D2E/DX2                !
 ! R3    R(2,3)                  1.5994         estimate D2E/DX2                !
 ! R4    R(3,6)                  1.5378         estimate D2E/DX2                !
 ! R5    R(3,7)                  1.5603         estimate D2E/DX2                !
 ! A1    A(3,1,4)               87.8816         estimate D2E/DX2                !
 ! A2    A(3,1,8)              107.5805         estimate D2E/DX2                !
 ! A3    A(4,1,8)              110.1183         estimate D2E/DX2                !
 ! A4    A(3,2,5)               88.7132         estimate D2E/DX2                !
 ! A5    A(1,3,2)               94.2096         estimate D2E/DX2                !
 ! A6    A(1,3,6)              101.6035         estimate D2E/DX2                !
 ! A7    A(1,3,7)              106.2413         estimate D2E/DX2                !
 ! A8    A(2,3,6)              110.4164         estimate D2E/DX2                !
 ! A9    A(2,3,7)              112.5433         estimate D2E/DX2                !
 ! A10   A(6,3,7)              125.9812         estimate D2E/DX2                !
 ! D1    D(4,1,3,2)            162.3378         estimate D2E/DX2                !
 ! D2    D(4,1,3,6)            -85.8111         estimate D2E/DX2                !
 ! D3    D(4,1,3,7)             47.387          estimate D2E/DX2                !
 ! D4    D(8,1,3,2)             51.8909         estimate D2E/DX2                !
 ! D5    D(8,1,3,6)            163.742          estimate D2E/DX2                !
 ! D6    D(8,1,3,7)            -63.0599         estimate D2E/DX2                !
 ! D7    D(5,2,3,1)            173.9468         estimate D2E/DX2                !
 ! D8    D(5,2,3,6)             69.9069         estimate D2E/DX2                !
 ! D9    D(5,2,3,7)            -76.5296         estimate D2E/DX2                !
 --------------------------------------------------------------------------------
 Trust Radius=3.00D-01 FncErr=1.00D-07 GrdErr=1.00D-06 EigMax=2.50D+02 EigMin=1.00D-04
 Number of steps in this run=    100 maximum allowed number of steps=    100.
 GradGradGradGradGradGradGradGradGradGradGradGradGradGradGradGradGradGrad

 Leave Link  103 at Tue Aug  9 14:37:18 2022, MaxMem=   104857600 cpu:               0.1 elap:               0.0
 (Enter /share/apps/gaussian/g16/l202.exe)
                          Input orientation:                          
 ---------------------------------------------------------------------
 Center     Atomic      Atomic             Coordinates (Angstroms)
 Number     Number       Type             X           Y           Z
 ---------------------------------------------------------------------
      1          8           0       -0.000150    0.000160    0.000210
      2          8           0        0.000080    0.000050    2.433470
      3         13           0       -0.026860    1.127370    1.299270
      4          1           0       -0.327590    0.751180   -0.608240
      5          1           0        0.095860    0.784420    3.176460
      6          9           0        1.356020    1.786650    1.165220
      7          9           0       -1.402890    1.858130    1.214740
      8          1           0       -0.748060   -0.671790    0.160680
 ---------------------------------------------------------------------
                    Distance matrix (angstroms):
                    1          2          3          4          5
     1  O    0.000000
     2  O    2.433260   0.000000
     3  Al   1.720137   1.599370   0.000000
     4  H    1.020519   3.150169   1.967372   0.000000
     5  H    3.273048   1.084640   1.912202   3.808460   0.000000
     6  F    2.527448   2.576620   1.537848   2.655542   2.576345
     7  F    2.625798   2.627944   1.560325   2.388486   2.692109
     8  H    1.018154   2.485288   2.247998   1.671190   3.453647
                    6          7          8
     6  F    0.000000
     7  F    2.760280   0.000000
     8  H    3.388242   2.817861   0.000000
 Symmetry turned off by external request.
 Stoichiometry    AlF2H3O2
 Framework group  C1[X(AlF2H3O2)]
 Deg. of freedom    18
 Full point group                 C1      NOp   1
 Rotational constants (GHZ):           4.3242358           3.9259877           3.7610917
 Leave Link  202 at Tue Aug  9 14:37:18 2022, MaxMem=   104857600 cpu:               0.1 elap:               0.0
 (Enter /share/apps/gaussian/g16/l301.exe)
 General basis read from cards:  (5D, 7F)
 Centers:       1      2      3      8
 6-31G**
 ****
 Centers:       4      5      6      7
 6-31G*
 ****
 Ernie: Thresh=  0.10000D-02 Tol=  0.10000D-05 Strict=F.
    83 basis functions,   179 primitive gaussians,    88 cartesian basis functions
    25 alpha electrons       25 beta electrons
       nuclear repulsion energy       272.4759325967 Hartrees.
 IExCor= 4639 DFT=T Ex+Corr=wB97XD ExCW=0 ScaHFX=  1.000000
 ScaDFX=  1.000000  1.000000  1.000000  1.000000 ScalE2=  1.000000  1.000000
 IRadAn=      5 IRanWt=     -1 IRanGd=            0 ICorTp=0 IEmpDi=121
 HFx  wShort=  0.000000 wLong=  0.200000 cFull=  0.222036 cShort=  0.000000 cLong=  0.777964
 DFx  wShort=  0.000000 wLong=  0.200000 cFull=  0.000000 cShort=  0.000000 cLong=  1.000000
 NAtoms=    8 NActive=    8 NUniq=    8 SFac= 1.00D+00 NAtFMM=   60 NAOKFM=F Big=F
 Integral buffers will be    131072 words long.
 Raffenetti 2 integral format.
 Two-electron integral symmetry is turned off.
 R6Disp:  Grimme-D2 Dispersion energy=       -0.0022028663 Hartrees.
 Nuclear repulsion after empirical dispersion term =      272.4737297304 Hartrees.
 Leave Link  301 at Tue Aug  9 14:37:18 2022, MaxMem=   104857600 cpu:               0.4 elap:               0.1
 (Enter /share/apps/gaussian/g16/l302.exe)
 NPDir=0 NMtPBC=     1 NCelOv=     1 NCel=       1 NClECP=     1 NCelD=      1
         NCelK=      1 NCelE2=     1 NClLst=     1 CellRange=     0.0.
 One-electron integrals computed using PRISM.
 NBasis=    83 RedAO= T EigKep=  1.23D-02  NBF=    83
 NBsUse=    83 1.00D-06 EigRej= -1.00D+00 NBFU=    83
 Precomputing XC quadrature grid using
 IXCGrd= 4 IRadAn=           5 IRanWt=          -1 IRanGd=           0 AccXCQ= 0.00D+00.
 Generated NRdTot=       0 NPtTot=           0 NUsed=           0 NTot=          32
 NSgBfM=    88    88    88    88    88 MxSgAt=     8 MxSgA2=     8.
 Leave Link  302 at Tue Aug  9 14:37:18 2022, MaxMem=   104857600 cpu:               1.1 elap:               0.2
 (Enter /share/apps/gaussian/g16/l303.exe)
 DipDrv:  MaxL=1.
 Leave Link  303 at Tue Aug  9 14:37:18 2022, MaxMem=   104857600 cpu:               0.2 elap:               0.0
 (Enter /share/apps/gaussian/g16/l401.exe)
 ExpMin= 5.57D-02 ExpMax= 1.40D+04 ExpMxC= 2.10D+03 IAcc=3 IRadAn=         5 AccDes= 0.00D+00
 Harris functional with IExCor= 4639 and IRadAn=       5 diagonalized for initial guess.
 HarFok:  IExCor= 4639 AccDes= 0.00D+00 IRadAn=         5 IDoV= 1 UseB2=F ITyADJ=14
 ICtDFT=  3500011 ScaDFX=  1.000000  1.000000  1.000000  1.000000
 FoFCou: FMM=F IPFlag=           0 FMFlag=      100000 FMFlg1=           0
         NFxFlg=           0 DoJE=T BraDBF=F KetDBF=T FulRan=T
         wScrn=  0.000000 ICntrl=       500 IOpCl=  0 I1Cent=   200000004 NGrid=           0
         NMat0=    1 NMatS0=      1 NMatT0=    0 NMatD0=    1 NMtDS0=    0 NMtDT0=    0
 Symmetry not used in FoFCou.
 Harris En= -577.694237976553    
 JPrj=0 DoOrth=F DoCkMO=F.
 Leave Link  401 at Tue Aug  9 14:37:19 2022, MaxMem=   104857600 cpu:               2.3 elap:               0.3
 (Enter /share/apps/gaussian/g16/l502.exe)
 Keep R1 ints in memory in canonical form, NReq=19764964.
 FoFCou: FMM=F IPFlag=           0 FMFlag=           0 FMFlg1=           0
         NFxFlg=           0 DoJE=F BraDBF=F KetDBF=F FulRan=T
         wScrn=  0.000000 ICntrl=       600 IOpCl=  0 I1Cent=           0 NGrid=           0
         NMat0=    1 NMatS0=   3486 NMatT0=    0 NMatD0=    1 NMtDS0=    0 NMtDT0=    0
 Symmetry not used in FoFCou.
 Two-electron integral symmetry not used.
 Closed shell SCF:
 Using DIIS extrapolation, IDIIS=  1040.
 NGot=   104857600 LenX=    92684688 LenY=    92676503
 Requested convergence on RMS density matrix=1.00D-08 within 128 cycles.
 Requested convergence on MAX density matrix=1.00D-06.
 Requested convergence on             energy=1.00D-06.
 No special actions if energy rises.
 Integral accuracy reduced to 1.0D-05 until final iterations.

 Cycle   1  Pass 0  IDiag  1:
 E= -594.286929208372    
 DIIS: error= 3.32D-02 at cycle   1 NSaved=   1.
 NSaved= 1 IEnMin= 1 EnMin= -594.286929208372     IErMin= 1 ErrMin= 3.32D-02
 ErrMax= 3.32D-02  0.00D+00 EMaxC= 1.00D-01 BMatC= 1.73D-01 BMatP= 1.73D-01
 IDIUse=3 WtCom= 6.68D-01 WtEn= 3.32D-01
 Coeff-Com:  0.100D+01
 Coeff-En:   0.100D+01
 Coeff:      0.100D+01
 Gap=     0.415 Goal=   None    Shift=    0.000
 GapD=    0.415 DampG=2.000 DampE=0.500 DampFc=1.0000 IDamp=-1.
 RMSDP=5.21D-03 MaxDP=8.73D-02              OVMax= 6.74D-02

 Cycle   2  Pass 0  IDiag  1:
 E= -594.329217973417     Delta-E=       -0.042288765045 Rises=F Damp=F
 DIIS: error= 2.85D-02 at cycle   2 NSaved=   2.
 NSaved= 2 IEnMin= 2 EnMin= -594.329217973417     IErMin= 2 ErrMin= 2.85D-02
 ErrMax= 2.85D-02  0.00D+00 EMaxC= 1.00D-01 BMatC= 6.57D-02 BMatP= 1.73D-01
 IDIUse=3 WtCom= 7.15D-01 WtEn= 2.85D-01
 Coeff-Com:  0.357D+00 0.643D+00
 Coeff-En:   0.233D+00 0.767D+00
 Coeff:      0.321D+00 0.679D+00
 Gap=     0.424 Goal=   None    Shift=    0.000
 RMSDP=2.25D-03 MaxDP=4.26D-02 DE=-4.23D-02 OVMax= 4.00D-02

 Cycle   3  Pass 0  IDiag  1:
 E= -594.362405229222     Delta-E=       -0.033187255805 Rises=F Damp=F
 DIIS: error= 1.10D-02 at cycle   3 NSaved=   3.
 NSaved= 3 IEnMin= 3 EnMin= -594.362405229222     IErMin= 3 ErrMin= 1.10D-02
 ErrMax= 1.10D-02  0.00D+00 EMaxC= 1.00D-01 BMatC= 1.13D-02 BMatP= 6.57D-02
 IDIUse=3 WtCom= 8.90D-01 WtEn= 1.10D-01
 Coeff-Com:  0.250D-01 0.300D+00 0.675D+00
 Coeff-En:   0.000D+00 0.100D+00 0.900D+00
 Coeff:      0.223D-01 0.278D+00 0.700D+00
 Gap=     0.402 Goal=   None    Shift=    0.000
 RMSDP=7.93D-04 MaxDP=1.34D-02 DE=-3.32D-02 OVMax= 1.60D-02

 Cycle   4  Pass 0  IDiag  1:
 E= -594.369444039461     Delta-E=       -0.007038810239 Rises=F Damp=F
 DIIS: error= 1.37D-03 at cycle   4 NSaved=   4.
 NSaved= 4 IEnMin= 4 EnMin= -594.369444039461     IErMin= 4 ErrMin= 1.37D-03
 ErrMax= 1.37D-03  0.00D+00 EMaxC= 1.00D-01 BMatC= 2.41D-04 BMatP= 1.13D-02
 IDIUse=3 WtCom= 9.86D-01 WtEn= 1.37D-02
 Coeff-Com:  0.130D-02 0.717D-01 0.246D+00 0.681D+00
 Coeff-En:   0.000D+00 0.000D+00 0.000D+00 0.100D+01
 Coeff:      0.128D-02 0.707D-01 0.243D+00 0.686D+00
 Gap=     0.405 Goal=   None    Shift=    0.000
 RMSDP=1.33D-04 MaxDP=4.02D-03 DE=-7.04D-03 OVMax= 4.24D-03

 Cycle   5  Pass 0  IDiag  1:
 E= -594.369602445145     Delta-E=       -0.000158405684 Rises=F Damp=F
 DIIS: error= 4.00D-04 at cycle   5 NSaved=   5.
 NSaved= 5 IEnMin= 5 EnMin= -594.369602445145     IErMin= 5 ErrMin= 4.00D-04
 ErrMax= 4.00D-04  0.00D+00 EMaxC= 1.00D-01 BMatC= 2.23D-05 BMatP= 2.41D-04
 IDIUse=3 WtCom= 9.96D-01 WtEn= 4.00D-03
 Coeff-Com: -0.184D-02-0.701D-02 0.233D-01 0.309D+00 0.676D+00
 Coeff-En:   0.000D+00 0.000D+00 0.000D+00 0.000D+00 0.100D+01
 Coeff:     -0.183D-02-0.698D-02 0.232D-01 0.308D+00 0.678D+00
 Gap=     0.404 Goal=   None    Shift=    0.000
 RMSDP=4.18D-05 MaxDP=1.03D-03 DE=-1.58D-04 OVMax= 9.36D-04

 Cycle   6  Pass 0  IDiag  1:
 E= -594.369619903763     Delta-E=       -0.000017458618 Rises=F Damp=F
 DIIS: error= 5.41D-05 at cycle   6 NSaved=   6.
 NSaved= 6 IEnMin= 6 EnMin= -594.369619903763     IErMin= 6 ErrMin= 5.41D-05
 ErrMax= 5.41D-05  0.00D+00 EMaxC= 1.00D-01 BMatC= 3.20D-07 BMatP= 2.23D-05
 IDIUse=1 WtCom= 1.00D+00 WtEn= 0.00D+00
 Coeff-Com: -0.332D-03-0.679D-02-0.157D-01-0.180D-01 0.535D-01 0.987D+00
 Coeff:     -0.332D-03-0.679D-02-0.157D-01-0.180D-01 0.535D-01 0.987D+00
 Gap=     0.404 Goal=   None    Shift=    0.000
 RMSDP=1.24D-05 MaxDP=1.59D-04 DE=-1.75D-05 OVMax= 3.27D-04

 Cycle   7  Pass 0  IDiag  1:
 E= -594.369620546753     Delta-E=       -0.000000642990 Rises=F Damp=F
 DIIS: error= 8.67D-06 at cycle   7 NSaved=   7.
 NSaved= 7 IEnMin= 7 EnMin= -594.369620546753     IErMin= 7 ErrMin= 8.67D-06
 ErrMax= 8.67D-06  0.00D+00 EMaxC= 1.00D-01 BMatC= 1.04D-08 BMatP= 3.20D-07
 IDIUse=1 WtCom= 1.00D+00 WtEn= 0.00D+00
 Coeff-Com:  0.854D-04 0.113D-03-0.123D-02-0.126D-01-0.295D-01 0.120D-02
 Coeff-Com:  0.104D+01
 Coeff:      0.854D-04 0.113D-03-0.123D-02-0.126D-01-0.295D-01 0.120D-02
 Coeff:      0.104D+01
 Gap=     0.404 Goal=   None    Shift=    0.000
 RMSDP=3.12D-06 MaxDP=5.17D-05 DE=-6.43D-07 OVMax= 9.78D-05

 Initial convergence to 1.0D-05 achieved.  Increase integral accuracy.
 Cycle   8  Pass 1  IDiag  1:
 E= -594.369613534261     Delta-E=        0.000007012492 Rises=F Damp=F
 DIIS: error= 2.62D-05 at cycle   1 NSaved=   1.
 NSaved= 1 IEnMin= 1 EnMin= -594.369613534261     IErMin= 1 ErrMin= 2.62D-05
 ErrMax= 2.62D-05  0.00D+00 EMaxC= 1.00D-01 BMatC= 1.65D-07 BMatP= 1.65D-07
 IDIUse=1 WtCom= 1.00D+00 WtEn= 0.00D+00
 Coeff-Com:  0.100D+01
 Coeff:      0.100D+01
 Gap=     0.404 Goal=   None    Shift=    0.000
 RMSDP=3.12D-06 MaxDP=5.17D-05 DE= 7.01D-06 OVMax= 1.01D-04

 Cycle   9  Pass 1  IDiag  1:
 E= -594.369613722242     Delta-E=       -0.000000187981 Rises=F Damp=F
 DIIS: error= 9.89D-06 at cycle   2 NSaved=   2.
 NSaved= 2 IEnMin= 2 EnMin= -594.369613722242     IErMin= 2 ErrMin= 9.89D-06
 ErrMax= 9.89D-06  0.00D+00 EMaxC= 1.00D-01 BMatC= 6.90D-09 BMatP= 1.65D-07
 IDIUse=1 WtCom= 1.00D+00 WtEn= 0.00D+00
 Coeff-Com: -0.409D-01 0.104D+01
 Coeff:     -0.409D-01 0.104D+01
 Gap=     0.404 Goal=   None    Shift=    0.000
 RMSDP=1.70D-06 MaxDP=2.81D-05 DE=-1.88D-07 OVMax= 3.38D-05

 Cycle  10  Pass 1  IDiag  1:
 E= -594.369613727909     Delta-E=       -0.000000005666 Rises=F Damp=F
 DIIS: error= 5.27D-06 at cycle   3 NSaved=   3.
 NSaved= 3 IEnMin= 3 EnMin= -594.369613727909     IErMin= 3 ErrMin= 5.27D-06
 ErrMax= 5.27D-06  0.00D+00 EMaxC= 1.00D-01 BMatC= 4.22D-09 BMatP= 6.90D-09
 IDIUse=1 WtCom= 1.00D+00 WtEn= 0.00D+00
 Coeff-Com: -0.584D-01 0.467D+00 0.591D+00
 Coeff:     -0.584D-01 0.467D+00 0.591D+00
 Gap=     0.404 Goal=   None    Shift=    0.000
 RMSDP=5.78D-07 MaxDP=1.23D-05 DE=-5.67D-09 OVMax= 1.27D-05

 Cycle  11  Pass 1  IDiag  1:
 E= -594.369613730712     Delta-E=       -0.000000002804 Rises=F Damp=F
 DIIS: error= 1.11D-06 at cycle   4 NSaved=   4.
 NSaved= 4 IEnMin= 4 EnMin= -594.369613730712     IErMin= 4 ErrMin= 1.11D-06
 ErrMax= 1.11D-06  0.00D+00 EMaxC= 1.00D-01 BMatC= 1.68D-10 BMatP= 4.22D-09
 IDIUse=1 WtCom= 1.00D+00 WtEn= 0.00D+00
 Coeff-Com: -0.151D-01 0.560D-01 0.185D+00 0.774D+00
 Coeff:     -0.151D-01 0.560D-01 0.185D+00 0.774D+00
 Gap=     0.404 Goal=   None    Shift=    0.000
 RMSDP=1.44D-07 MaxDP=3.31D-06 DE=-2.80D-09 OVMax= 3.82D-06

 Cycle  12  Pass 1  IDiag  1:
 E= -594.369613730857     Delta-E=       -0.000000000144 Rises=F Damp=F
 DIIS: error= 1.76D-07 at cycle   5 NSaved=   5.
 NSaved= 5 IEnMin= 5 EnMin= -594.369613730857     IErMin= 5 ErrMin= 1.76D-07
 ErrMax= 1.76D-07  0.00D+00 EMaxC= 1.00D-01 BMatC= 7.34D-12 BMatP= 1.68D-10
 IDIUse=1 WtCom= 1.00D+00 WtEn= 0.00D+00
 Coeff-Com:  0.354D-03-0.160D-01-0.598D-02 0.129D+00 0.893D+00
 Coeff:      0.354D-03-0.160D-01-0.598D-02 0.129D+00 0.893D+00
 Gap=     0.404 Goal=   None    Shift=    0.000
 RMSDP=4.92D-08 MaxDP=9.62D-07 DE=-1.44D-10 OVMax= 1.61D-06

 Cycle  13  Pass 1  IDiag  1:
 E= -594.369613730865     Delta-E=       -0.000000000009 Rises=F Damp=F
 DIIS: error= 1.67D-07 at cycle   6 NSaved=   6.
 NSaved= 6 IEnMin= 6 EnMin= -594.369613730865     IErMin= 6 ErrMin= 1.67D-07
 ErrMax= 1.67D-07  0.00D+00 EMaxC= 1.00D-01 BMatC= 2.72D-12 BMatP= 7.34D-12
 IDIUse=1 WtCom= 1.00D+00 WtEn= 0.00D+00
 Coeff-Com:  0.158D-02-0.126D-01-0.209D-01-0.136D-01 0.423D+00 0.623D+00
 Coeff:      0.158D-02-0.126D-01-0.209D-01-0.136D-01 0.423D+00 0.623D+00
 Gap=     0.404 Goal=   None    Shift=    0.000
 RMSDP=1.61D-08 MaxDP=2.96D-07 DE=-8.64D-12 OVMax= 4.33D-07

 Cycle  14  Pass 1  IDiag  1:
 E= -594.369613730870     Delta-E=       -0.000000000005 Rises=F Damp=F
 DIIS: error= 2.75D-08 at cycle   7 NSaved=   7.
 NSaved= 7 IEnMin= 7 EnMin= -594.369613730870     IErMin= 7 ErrMin= 2.75D-08
 ErrMax= 2.75D-08  0.00D+00 EMaxC= 1.00D-01 BMatC= 6.71D-14 BMatP= 2.72D-12
 IDIUse=1 WtCom= 1.00D+00 WtEn= 0.00D+00
 Coeff-Com:  0.154D-03 0.256D-03-0.222D-02-0.170D-01-0.434D-01 0.703D-01
 Coeff-Com:  0.992D+00
 Coeff:      0.154D-03 0.256D-03-0.222D-02-0.170D-01-0.434D-01 0.703D-01
 Coeff:      0.992D+00
 Gap=     0.404 Goal=   None    Shift=    0.000
 RMSDP=6.91D-09 MaxDP=1.21D-07 DE=-4.77D-12 OVMax= 2.93D-07

 SCF Done:  E(RwB97XD) =  -594.369613731     A.U. after   14 cycles
            NFock= 14  Conv=0.69D-08     -V/T= 2.0024
 KE= 5.929608738196D+02 PE=-1.963018028652D+03 EE= 5.032138113710D+02
 Leave Link  502 at Tue Aug  9 14:37:21 2022, MaxMem=   104857600 cpu:              14.4 elap:               1.9
 (Enter /share/apps/gaussian/g16/l601.exe)
 Copying SCF densities to generalized density rwf, IOpCl= 0 IROHF=0.

 **********************************************************************

            Population analysis using the SCF Density.

 **********************************************************************

 Alpha  occ. eigenvalues --  -56.12028 -24.76847 -24.75240 -19.39783 -19.21712
 Alpha  occ. eigenvalues --   -4.20956  -2.75106  -2.74761  -2.74673  -1.25356
 Alpha  occ. eigenvalues --   -1.23416  -1.22648  -1.03341  -0.74451  -0.63105
 Alpha  occ. eigenvalues --   -0.57813  -0.53691  -0.50867  -0.50013  -0.49296
 Alpha  occ. eigenvalues --   -0.48459  -0.47454  -0.46532  -0.40328  -0.36266
 Alpha virt. eigenvalues --    0.04129   0.11073   0.12473   0.18765   0.19572
 Alpha virt. eigenvalues --    0.24957   0.27798   0.36650   0.37205   0.45895
 Alpha virt. eigenvalues --    0.52842   0.64967   0.68681   0.77994   0.81057
 Alpha virt. eigenvalues --    0.91364   0.94422   0.98273   0.99561   1.03821
 Alpha virt. eigenvalues --    1.06695   1.09313   1.13051   1.23529   1.28362
 Alpha virt. eigenvalues --    1.37001   1.37712   1.44356   1.46719   1.48825
 Alpha virt. eigenvalues --    1.49072   1.50361   1.66170   1.71724   1.82867
 Alpha virt. eigenvalues --    1.87026   1.88173   1.89913   1.91073   1.92667
 Alpha virt. eigenvalues --    1.93463   1.94408   1.97864   2.06235   2.12799
 Alpha virt. eigenvalues --    2.17720   2.33109   2.38337   2.41625   2.46436
 Alpha virt. eigenvalues --    2.54840   2.57273   2.63339   2.68023   2.79980
 Alpha virt. eigenvalues --    2.91878   2.99781   3.39854
          Condensed to atoms (all electrons):
               1          2          3          4          5          6
     1  O    7.979287  -0.035242   0.187294   0.216538   0.001949  -0.010291
     2  O   -0.035242   8.167020   0.396352   0.001958   0.207558  -0.007873
     3  Al   0.187294   0.396352  10.823544  -0.012162  -0.025778   0.303266
     4  H    0.216538   0.001958  -0.012162   0.301555  -0.000171  -0.001945
     5  H    0.001949   0.207558  -0.025778  -0.000171   0.431919  -0.003393
     6  F   -0.010291  -0.007873   0.303266  -0.001945  -0.003393   9.237690
     7  F   -0.010568  -0.006433   0.297051   0.002143  -0.002508  -0.002321
     8  H    0.284695   0.001508  -0.010460  -0.008041  -0.000084   0.000042
               7          8
     1  O   -0.010568   0.284695
     2  O   -0.006433   0.001508
     3  Al   0.297051  -0.010460
     4  H    0.002143  -0.008041
     5  H   -0.002508  -0.000084
     6  F   -0.002321   0.000042
     7  F    9.235275  -0.000880
     8  H   -0.000880   0.299303
 Mulliken charges:
               1
     1  O   -0.613661
     2  O   -0.724849
     3  Al   1.040893
     4  H    0.500125
     5  H    0.390510
     6  F   -0.515176
     7  F   -0.511758
     8  H    0.433918
 Sum of Mulliken charges =  -0.00000
 Mulliken charges with hydrogens summed into heavy atoms:
               1
     1  O    0.320381
     2  O   -0.334339
     3  Al   1.040893
     6  F   -0.515176
     7  F   -0.511758
 Electronic spatial extent (au):  <R**2>=            857.5875
 Charge=             -0.0000 electrons
 Dipole moment (field-independent basis, Debye):
    X=             -1.9256    Y=             -0.9108    Z=             -3.3819  Tot=              3.9969
 Quadrupole moment (field-independent basis, Debye-Ang):
   XX=            -37.6685   YY=            -34.7511   ZZ=            -32.9626
   XY=              1.2610   XZ=              1.0606   YZ=              1.0939
 Traceless Quadrupole moment (field-independent basis, Debye-Ang):
   XX=             -2.5411   YY=              0.3763   ZZ=              2.1648
   XY=              1.2610   XZ=              1.0606   YZ=              1.0939
 Octapole moment (field-independent basis, Debye-Ang**2):
  XXX=              2.4299  YYY=            -99.6056  ZZZ=           -111.2359  XYY=              0.5912
  XXY=            -42.9035  XXZ=            -48.4033  XZZ=              3.0488  YZZ=            -13.0015
  YYZ=            -42.8725  XYZ=              1.5487
 Hexadecapole moment (field-independent basis, Debye-Ang**3):
 XXXX=           -156.4072 YYYY=           -326.0318 ZZZZ=           -390.1141 XXXY=              5.7408
 XXXZ=              3.5288 YYYX=              5.7982 YYYZ=           -119.4280 ZZZX=              9.9527
 ZZZY=            -53.7677 XXYY=            -97.9314 XXZZ=           -110.2177 YYZZ=           -115.4602
 XXYZ=            -51.4435 YYXZ=              2.5516 ZZXY=              3.1761
 N-N= 2.724737297304D+02 E-N=-1.963018029510D+03  KE= 5.929608738196D+02
 No NMR shielding tensors so no spin-rotation constants.
 Leave Link  601 at Tue Aug  9 14:37:21 2022, MaxMem=   104857600 cpu:               1.0 elap:               0.1
 (Enter /share/apps/gaussian/g16/l701.exe)
 ... and contract with generalized density number  0.
 Compute integral first derivatives.
 R6Disp: Adding Grimme-D2 dispersion energy 1st derivatives to the gradient.
 Leave Link  701 at Tue Aug  9 14:37:21 2022, MaxMem=   104857600 cpu:               1.1 elap:               0.2
 (Enter /share/apps/gaussian/g16/l702.exe)
 L702 exits ... SP integral derivatives will be done elsewhere.
 Leave Link  702 at Tue Aug  9 14:37:21 2022, MaxMem=   104857600 cpu:               0.1 elap:               0.0
 (Enter /share/apps/gaussian/g16/l703.exe)
 Integral derivatives from FoFJK, PRISM(SPDF).
 Compute integral first derivatives, UseDBF=F ICtDFT=           0.
 Calling FoFJK, ICntrl=      2127 FMM=F ISym2X=0 I1Cent= 0 IOpClX= 0 NMat=1 NMatS=1 NMatT=0.
 FoFJK:  IHMeth= 1 ICntrl=    2127 DoSepK=T KAlg= 0 I1Cent=           0 FoldK=F
 IRaf=         1 NMat=       1 IRICut=       1 DoRegI=T DoRafI=F ISym2E= 0 IDoP0=0 IntGTp=1.
 FoFCou: FMM=F IPFlag=           0 FMFlag=      100000 FMFlg1=         800
         NFxFlg=           0 DoJE=F BraDBF=F KetDBF=F FulRan=T
         wScrn=  0.000000 ICntrl=      2527 IOpCl=  0 I1Cent=           0 NGrid=           0
         NMat0=    1 NMatS0=      1 NMatT0=    0 NMatD0=    1 NMtDS0=    0 NMtDT0=    0
 Symmetry not used in FoFCou.
 Leave Link  703 at Tue Aug  9 14:37:22 2022, MaxMem=   104857600 cpu:               8.5 elap:               1.1
 (Enter /share/apps/gaussian/g16/l716.exe)
 Dipole        =-7.57599756D-01-3.58344644D-01-1.33055658D+00
 -------------------------------------------------------------------
 Center     Atomic                   Forces (Hartrees/Bohr)
 Number     Number              X              Y              Z
 -------------------------------------------------------------------
      1        8          -0.000000000   -0.000000000   -0.000000000
      2        8          -0.000000000   -0.000000000   -0.000000000
      3       13          -0.002312686    0.003109725    0.027645650
      4        1          -0.000000000   -0.000000000   -0.000000000
      5        1          -0.000000000   -0.000000000   -0.000000000
      6        9          -0.000000000   -0.000000000   -0.000000000
      7        9          -0.000000000   -0.000000000   -0.000000000
      8        1           0.029024923    0.028191684   -0.011378972
 -------------------------------------------------------------------
 Cartesian Forces:  Max     0.029024923 RMS     0.010299674
 Leave Link  716 at Tue Aug  9 14:37:22 2022, MaxMem=   104857600 cpu:               0.2 elap:               0.0
 (Enter /share/apps/gaussian/g16/l103.exe)

 GradGradGradGradGradGradGradGradGradGradGradGradGradGradGradGradGradGrad
 Berny optimization.
 FormGI is forming the generalized inverse of G from B-inverse, IUseBI=4.
 Internal  Forces:  Max     0.041720046 RMS     0.009212943
 Search for a local minimum.
 Step number   1 out of a maximum of  100
 All quantities printed in internal units (Hartrees-Bohrs-Radians)
 RMS Force = .95553D-02 SwitMx=.10000D-02 MixMth= 1
 Mixed Optimization -- RFO/linear search
 Second derivative matrix not updated -- first step.
 ITU=  0
     Eigenvalues ---    0.07125   0.16000   0.26265   0.34138   0.42852
     Eigenvalues ---    0.446341000.000001000.000001000.000001000.00000
     Eigenvalues --- 1000.000001000.000001000.000001000.000001000.00000
     Eigenvalues --- 1000.000001000.000001000.000001000.000001000.00000
     Eigenvalues --- 1000.000001000.000001000.000001000.000001000.00000
     Eigenvalues --- 1000.000001000.000001000.000001000.000001000.00000
     Eigenvalues --- 1000.000001000.000001000.000001000.000001000.00000
     Eigenvalues --- 1000.000001000.000001000.000001000.000001000.00000
     Eigenvalues --- 1000.000001000.00000
 RFO step:  Lambda=-5.64835895D-03 EMin= 7.12528969D-02
 Linear search not attempted -- first point.
 Iteration  1 RMS(Cart)=  0.02136205 RMS(Int)=  0.00065319
 Iteration  2 RMS(Cart)=  0.00077826 RMS(Int)=  0.00017275
 New curvilinear step failed, DQL= 6.48D-06 SP=-5.11D-02.
 ITry= 1 IFail=1 DXMaxC= 9.97D-02 DCOld= 1.00D+10 DXMaxT= 3.00D-01 DXLimC= 3.00D+00 Rises=F
 Iteration  1 RMS(Cart)=  0.01922811 RMS(Int)=  0.00052702
 Iteration  2 RMS(Cart)=  0.00063135 RMS(Int)=  0.00013994
 New curvilinear step failed, DQL= 4.24D-06 SP=-5.28D-02.
 ITry= 2 IFail=1 DXMaxC= 9.01D-02 DCOld= 1.00D+10 DXMaxT= 3.00D-01 DXLimC= 3.00D+00 Rises=F
 Iteration  1 RMS(Cart)=  0.01709329 RMS(Int)=  0.00041477
 Iteration  2 RMS(Cart)=  0.00049959 RMS(Int)=  0.00011058
 New curvilinear step failed, DQL= 2.64D-06 SP=-5.43D-02.
 ITry= 3 IFail=1 DXMaxC= 8.05D-02 DCOld= 1.00D+10 DXMaxT= 3.00D-01 DXLimC= 3.00D+00 Rises=F
 Iteration  1 RMS(Cart)=  0.01495750 RMS(Int)=  0.00031630
 Iteration  2 RMS(Cart)=  0.00038298 RMS(Int)=  0.00008467
 New curvilinear step failed, DQL= 1.55D-06 SP=-5.57D-02.
 ITry= 4 IFail=1 DXMaxC= 7.07D-02 DCOld= 1.00D+10 DXMaxT= 3.00D-01 DXLimC= 3.00D+00 Rises=F
 Iteration  1 RMS(Cart)=  0.01282072 RMS(Int)=  0.00023145
 Iteration  2 RMS(Cart)=  0.00028155 RMS(Int)=  0.00006221
 New curvilinear step failed, DQL= 8.31D-07 SP=-5.70D-02.
 ITry= 5 IFail=1 DXMaxC= 6.09D-02 DCOld= 1.00D+10 DXMaxT= 3.00D-01 DXLimC= 3.00D+00 Rises=F
 Iteration  1 RMS(Cart)=  0.01068393 RMS(Int)=  0.00016009
 Iteration  2 RMS(Cart)=  0.00019565 RMS(Int)=  0.00004320
 New curvilinear step failed, DQL= 3.99D-07 SP=-5.80D-02.
 ITry= 6 IFail=1 DXMaxC= 5.09D-02 DCOld= 1.00D+10 DXMaxT= 3.00D-01 DXLimC= 3.00D+00 Rises=F
 Iteration  1 RMS(Cart)=  0.00854714 RMS(Int)=  0.00010205
 Iteration  2 RMS(Cart)=  0.00012529 RMS(Int)=  0.00002765
 Iteration  3 RMS(Cart)=  0.00000003 RMS(Int)=  0.00002765
 ITry= 7 IFail=0 DXMaxC= 4.09D-02 DCOld= 1.00D+10 DXMaxT= 3.00D-01 DXLimC= 3.00D+00 Rises=F
 Variable       Old X    -DE/DX   Delta X   Delta X   Delta X     New X
                                 (Linear)    (Quad)   (Total)
    X1       -0.00028   0.01668   0.00000   0.00000   0.00000  -0.00028
    Y1        0.00030   0.02264   0.00000   0.00000   0.00000   0.00030
    Z1        0.00040  -0.00418   0.00000   0.00000   0.00000   0.00040
    X2        0.00015   0.00235   0.00000   0.00000   0.00000   0.00015
    Y2        0.00009   0.00003   0.00000   0.00000   0.00000   0.00009
    Z2        4.59859   0.00420   0.00000   0.00000   0.00000   4.59859
    X4       -0.61906   0.01095   0.00000   0.00000   0.00000  -0.61906
    Y4        1.41952   0.00660   0.00000   0.00000   0.00000   1.41952
    Z4       -1.14941   0.00226   0.00000   0.00000   0.00000  -1.14941
    X5        0.18115  -0.00102   0.00000   0.00000   0.00000   0.18115
    Y5        1.48234  -0.00174   0.00000   0.00000   0.00000   1.48234
    Z5        6.00264   0.00197   0.00000   0.00000   0.00000   6.00264
    X6        2.56251  -0.00048   0.00000   0.00000   0.00000   2.56251
    Y6        3.37628   0.00429   0.00000   0.00000   0.00000   3.37628
    Z6        2.20195   0.00603   0.00000   0.00000   0.00000   2.20195
    X7       -2.65108  -0.00177   0.00000   0.00000   0.00000  -2.65108
    Y7        3.51136  -0.00052   0.00000   0.00000   0.00000   3.51136
    Z7        2.29553   0.00599   0.00000   0.00000   0.00000   2.29553
    R1        3.25059   0.00785   0.00000   0.04303   0.01722   3.26781
    R2        1.92403  -0.04172   0.00000  -0.09230  -0.03692   1.88711
    R3        3.02237  -0.00560   0.00000  -0.02689  -0.01072   3.01165
    R4        2.90611  -0.00088   0.00000   0.00183   0.00081   2.90692
    R5        2.94859  -0.00099   0.00000  -0.00413  -0.00158   2.94701
    A1        1.53382   0.00890   0.00000   0.00679   0.00271   1.53653
    A2        1.87763   0.00582   0.00000   0.03678   0.01471   1.89234
    A3        1.92193  -0.00781   0.00000  -0.02495  -0.01001   1.91192
    A4        1.54834  -0.00534   0.00000  -0.01348  -0.00541   1.54293
    A5        1.64427   0.00302   0.00000  -0.00630  -0.00255   1.64172
    A6        1.77332  -0.01194   0.00000  -0.01854  -0.00742   1.76590
    A7        1.85426  -0.00404   0.00000  -0.01733  -0.00694   1.84732
    A8        1.92713   0.00350   0.00000   0.01230   0.00488   1.93201
    A9        1.96425   0.00391   0.00000   0.01563   0.00623   1.97048
   A10        2.19879   0.00213   0.00000   0.00155   0.00052   2.19931
    D1        2.83333  -0.00433   0.00000   0.00081   0.00032   2.83365
    D2       -1.49769  -0.00189   0.00000   0.00895   0.00356  -1.49413
    D3        0.82706  -0.00869   0.00000  -0.00983  -0.00391   0.82315
    D4        0.90567   0.00054   0.00000   0.02196   0.00878   0.91445
    D5        2.85784   0.00298   0.00000   0.03010   0.01201   2.86985
    D6       -1.10060  -0.00382   0.00000   0.01132   0.00455  -1.09605
    D7        3.03594  -0.00370   0.00000  -0.00071  -0.00029   3.03566
    D8        1.22011   0.00739   0.00000   0.01977   0.00795   1.22805
    D9       -1.33569  -0.00588   0.00000  -0.01929  -0.00777  -1.34347
         Item               Value     Threshold  Converged?
 Maximum Force            0.041720     0.000450     NO 
 RMS     Force            0.009555     0.000300     NO 
 Maximum Displacement     0.040909     0.001800     NO 
 RMS     Displacement     0.008508     0.001200     NO 
 Predicted change in Energy=-1.815145D-03
 Lowest energy point so far.  Saving SCF results.
 GradGradGradGradGradGradGradGradGradGradGradGradGradGradGradGradGradGrad

 Leave Link  103 at Tue Aug  9 14:37:22 2022, MaxMem=   104857600 cpu:               0.3 elap:               0.1
 (Enter /share/apps/gaussian/g16/l202.exe)
                          Input orientation:                          
 ---------------------------------------------------------------------
 Center     Atomic      Atomic             Coordinates (Angstroms)
 Number     Number       Type             X           Y           Z
 ---------------------------------------------------------------------
      1          8           0       -0.000150    0.000160    0.000210
      2          8           0        0.000080    0.000050    2.433470
      3         13           0       -0.027333    1.129518    1.309453
      4          1           0       -0.327590    0.751180   -0.608240
      5          1           0        0.095860    0.784420    3.176460
      6          9           0        1.356020    1.786650    1.165220
      7          9           0       -1.402890    1.858130    1.214740
      8          1           0       -0.734935   -0.661693    0.139032
 ---------------------------------------------------------------------
                    Distance matrix (angstroms):
                    1          2          3          4          5
     1  O    0.000000
     2  O    2.433260   0.000000
     3  Al   1.729250   1.593695   0.000000
     4  H    1.020519   3.150169   1.977584   0.000000
     5  H    3.273048   1.084640   1.902626   3.808460   0.000000
     6  F    2.527448   2.576620   1.538275   2.655542   2.576345
     7  F    2.625798   2.627944   1.559488   2.388486   2.692109
     8  H    0.998614   2.498519   2.253669   1.649411   3.465174
                    6          7          8
     6  F    0.000000
     7  F    2.760280   0.000000
     8  H    3.379280   2.820074   0.000000
 Symmetry turned off by external request.
 Stoichiometry    AlF2H3O2
 Framework group  C1[X(AlF2H3O2)]
 Deg. of freedom    18
 Full point group                 C1      NOp   1
 Rotational constants (GHZ):           4.3217975           3.9246768           3.7611234
 Leave Link  202 at Tue Aug  9 14:37:22 2022, MaxMem=   104857600 cpu:               0.1 elap:               0.0
 (Enter /share/apps/gaussian/g16/l301.exe)
 Basis read from rwf:  (5D, 7F)
 No pseudopotential information found on rwf file.
    83 basis functions,   179 primitive gaussians,    88 cartesian basis functions
    25 alpha electrons       25 beta electrons
       nuclear repulsion energy       272.5107435859 Hartrees.
 IExCor= 4639 DFT=T Ex+Corr=wB97XD ExCW=0 ScaHFX=  1.000000
 ScaDFX=  1.000000  1.000000  1.000000  1.000000 ScalE2=  1.000000  1.000000
 IRadAn=      5 IRanWt=     -1 IRanGd=            0 ICorTp=0 IEmpDi=121
 HFx  wShort=  0.000000 wLong=  0.200000 cFull=  0.222036 cShort=  0.000000 cLong=  0.777964
 DFx  wShort=  0.000000 wLong=  0.200000 cFull=  0.000000 cShort=  0.000000 cLong=  1.000000
 NAtoms=    8 NActive=    8 NUniq=    8 SFac= 1.00D+00 NAtFMM=   60 NAOKFM=F Big=F
 Integral buffers will be    131072 words long.
 Raffenetti 2 integral format.
 Two-electron integral symmetry is turned off.
 R6Disp:  Grimme-D2 Dispersion energy=       -0.0022032941 Hartrees.
 Nuclear repulsion after empirical dispersion term =      272.5085402918 Hartrees.
 No density basis found on file    724.
 Leave Link  301 at Tue Aug  9 14:37:22 2022, MaxMem=   104857600 cpu:               0.3 elap:               0.1
 (Enter /share/apps/gaussian/g16/l302.exe)
 NPDir=0 NMtPBC=     1 NCelOv=     1 NCel=       1 NClECP=     1 NCelD=      1
         NCelK=      1 NCelE2=     1 NClLst=     1 CellRange=     0.0.
 One-electron integrals computed using PRISM.
 NBasis=    83 RedAO= T EigKep=  1.20D-02  NBF=    83
 NBsUse=    83 1.00D-06 EigRej= -1.00D+00 NBFU=    83
 Precomputing XC quadrature grid using
 IXCGrd= 4 IRadAn=           5 IRanWt=          -1 IRanGd=           0 AccXCQ= 0.00D+00.
 Generated NRdTot=       0 NPtTot=           0 NUsed=           0 NTot=          32
 NSgBfM=    88    88    88    88    88 MxSgAt=     8 MxSgA2=     8.
 Leave Link  302 at Tue Aug  9 14:37:23 2022, MaxMem=   104857600 cpu:               1.1 elap:               0.2
 (Enter /share/apps/gaussian/g16/l303.exe)
 DipDrv:  MaxL=1.
 Leave Link  303 at Tue Aug  9 14:37:23 2022, MaxMem=   104857600 cpu:               0.2 elap:               0.0
 (Enter /share/apps/gaussian/g16/l401.exe)
 Initial guess from the checkpoint file:  "Al_F_1_r_P.chk"
 B after Tr=     0.001741    0.003804    0.002340
         Rot=    1.000000   -0.000514    0.000228   -0.000119 Ang=  -0.07 deg.
 Guess basis will be translated and rotated to current coordinates.
 JPrj=2 DoOrth=T DoCkMO=T.
 Generating alternative initial guess.
 ExpMin= 5.57D-02 ExpMax= 1.40D+04 ExpMxC= 2.10D+03 IAcc=3 IRadAn=         5 AccDes= 0.00D+00
 Harris functional with IExCor= 4639 and IRadAn=       5 diagonalized for initial guess.
 HarFok:  IExCor= 4639 AccDes= 0.00D+00 IRadAn=         5 IDoV= 1 UseB2=F ITyADJ=14
 ICtDFT=  3500011 ScaDFX=  1.000000  1.000000  1.000000  1.000000
 FoFCou: FMM=F IPFlag=           0 FMFlag=      100000 FMFlg1=           0
         NFxFlg=           0 DoJE=T BraDBF=F KetDBF=T FulRan=T
         wScrn=  0.000000 ICntrl=       500 IOpCl=  0 I1Cent=   200000004 NGrid=           0
         NMat0=    1 NMatS0=      1 NMatT0=    0 NMatD0=    1 NMtDS0=    0 NMtDT0=    0
 Symmetry not used in FoFCou.
 Harris En= -577.693261606127    
 Leave Link  401 at Tue Aug  9 14:37:23 2022, MaxMem=   104857600 cpu:               2.5 elap:               0.3
 (Enter /share/apps/gaussian/g16/l502.exe)
 Keep R1 ints in memory in canonical form, NReq=19764964.
 FoFCou: FMM=F IPFlag=           0 FMFlag=           0 FMFlg1=           0
         NFxFlg=           0 DoJE=F BraDBF=F KetDBF=F FulRan=T
         wScrn=  0.000000 ICntrl=       600 IOpCl=  0 I1Cent=           0 NGrid=           0
         NMat0=    1 NMatS0=   3486 NMatT0=    0 NMatD0=    1 NMtDS0=    0 NMtDT0=    0
 Symmetry not used in FoFCou.
 Two-electron integral symmetry not used.
 Closed shell SCF:
 Using DIIS extrapolation, IDIIS=  1040.
 NGot=   104857600 LenX=    92684688 LenY=    92676503
 Requested convergence on RMS density matrix=1.00D-08 within 128 cycles.
 Requested convergence on MAX density matrix=1.00D-06.
 Requested convergence on             energy=1.00D-06.
 No special actions if energy rises.
 Integral accuracy reduced to 1.0D-05 until final iterations.

 Cycle   1  Pass 0  IDiag  1:
 E= -594.371366843031    
 DIIS: error= 1.07D-03 at cycle   1 NSaved=   1.
 NSaved= 1 IEnMin= 1 EnMin= -594.371366843031     IErMin= 1 ErrMin= 1.07D-03
 ErrMax= 1.07D-03  0.00D+00 EMaxC= 1.00D-01 BMatC= 1.65D-04 BMatP= 1.65D-04
 IDIUse=3 WtCom= 9.89D-01 WtEn= 1.07D-02
 Coeff-Com:  0.100D+01
 Coeff-En:   0.100D+01
 Coeff:      0.100D+01
 Gap=     0.552 Goal=   None    Shift=    0.000
 GapD=    0.552 DampG=2.000 DampE=1.000 DampFc=2.0000 IDamp=-1.
 RMSDP=1.69D-04 MaxDP=2.83D-03              OVMax= 3.27D-03

 Cycle   2  Pass 0  IDiag  1:
 E= -594.371514416830     Delta-E=       -0.000147573799 Rises=F Damp=F
 DIIS: error= 2.25D-04 at cycle   2 NSaved=   2.
 NSaved= 2 IEnMin= 2 EnMin= -594.371514416830     IErMin= 2 ErrMin= 2.25D-04
 ErrMax= 2.25D-04  0.00D+00 EMaxC= 1.00D-01 BMatC= 9.63D-06 BMatP= 1.65D-04
 IDIUse=3 WtCom= 9.98D-01 WtEn= 2.25D-03
 Coeff-Com:  0.511D-01 0.949D+00
 Coeff-En:   0.000D+00 0.100D+01
 Coeff:      0.510D-01 0.949D+00
 Gap=     0.409 Goal=   None    Shift=    0.000
 RMSDP=4.05D-05 MaxDP=1.08D-03 DE=-1.48D-04 OVMax= 1.08D-03

 Cycle   3  Pass 0  IDiag  1:
 E= -594.371520207055     Delta-E=       -0.000005790225 Rises=F Damp=F
 DIIS: error= 1.79D-04 at cycle   3 NSaved=   3.
 NSaved= 3 IEnMin= 3 EnMin= -594.371520207055     IErMin= 3 ErrMin= 1.79D-04
 ErrMax= 1.79D-04  0.00D+00 EMaxC= 1.00D-01 BMatC= 5.14D-06 BMatP= 9.63D-06
 IDIUse=3 WtCom= 9.98D-01 WtEn= 1.79D-03
 Coeff-Com: -0.288D-01 0.414D+00 0.615D+00
 Coeff-En:   0.000D+00 0.990D-01 0.901D+00
 Coeff:     -0.287D-01 0.413D+00 0.615D+00
 Gap=     0.409 Goal=   None    Shift=    0.000
 RMSDP=1.81D-05 MaxDP=5.93D-04 DE=-5.79D-06 OVMax= 5.59D-04

 Cycle   4  Pass 0  IDiag  1:
 E= -594.371523904337     Delta-E=       -0.000003697282 Rises=F Damp=F
 DIIS: error= 3.18D-05 at cycle   4 NSaved=   4.
 NSaved= 4 IEnMin= 4 EnMin= -594.371523904337     IErMin= 4 ErrMin= 3.18D-05
 ErrMax= 3.18D-05  0.00D+00 EMaxC= 1.00D-01 BMatC= 2.02D-07 BMatP= 5.14D-06
 IDIUse=1 WtCom= 1.00D+00 WtEn= 0.00D+00
 Coeff-Com: -0.140D-01 0.295D-01 0.176D+00 0.808D+00
 Coeff:     -0.140D-01 0.295D-01 0.176D+00 0.808D+00
 Gap=     0.409 Goal=   None    Shift=    0.000
 RMSDP=4.60D-06 MaxDP=9.20D-05 DE=-3.70D-06 OVMax= 1.14D-04

 Initial convergence to 1.0D-05 achieved.  Increase integral accuracy.
 Cycle   5  Pass 1  IDiag  1:
 E= -594.371522380292     Delta-E=        0.000001524045 Rises=F Damp=F
 DIIS: error= 3.04D-05 at cycle   1 NSaved=   1.
 NSaved= 1 IEnMin= 1 EnMin= -594.371522380292     IErMin= 1 ErrMin= 3.04D-05
 ErrMax= 3.04D-05  0.00D+00 EMaxC= 1.00D-01 BMatC= 2.25D-07 BMatP= 2.25D-07
 IDIUse=1 WtCom= 1.00D+00 WtEn= 0.00D+00
 Coeff-Com:  0.100D+01
 Coeff:      0.100D+01
 Gap=     0.409 Goal=   None    Shift=    0.000
 RMSDP=4.60D-06 MaxDP=9.20D-05 DE= 1.52D-06 OVMax= 1.17D-04

 Cycle   6  Pass 1  IDiag  1:
 E= -594.371522621757     Delta-E=       -0.000000241465 Rises=F Damp=F
 DIIS: error= 1.24D-05 at cycle   2 NSaved=   2.
 NSaved= 2 IEnMin= 2 EnMin= -594.371522621757     IErMin= 2 ErrMin= 1.24D-05
 ErrMax= 1.24D-05  0.00D+00 EMaxC= 1.00D-01 BMatC= 1.78D-08 BMatP= 2.25D-07
 IDIUse=1 WtCom= 1.00D+00 WtEn= 0.00D+00
 Coeff-Com:  0.554D-01 0.945D+00
 Coeff:      0.554D-01 0.945D+00
 Gap=     0.409 Goal=   None    Shift=    0.000
 RMSDP=2.15D-06 MaxDP=3.02D-05 DE=-2.41D-07 OVMax= 3.24D-05

 Cycle   7  Pass 1  IDiag  1:
 E= -594.371522630711     Delta-E=       -0.000000008954 Rises=F Damp=F
 DIIS: error= 1.22D-05 at cycle   3 NSaved=   3.
 NSaved= 3 IEnMin= 3 EnMin= -594.371522630711     IErMin= 3 ErrMin= 1.22D-05
 ErrMax= 1.22D-05  0.00D+00 EMaxC= 1.00D-01 BMatC= 1.20D-08 BMatP= 1.78D-08
 IDIUse=1 WtCom= 1.00D+00 WtEn= 0.00D+00
 Coeff-Com: -0.548D-01 0.455D+00 0.599D+00
 Coeff:     -0.548D-01 0.455D+00 0.599D+00
 Gap=     0.409 Goal=   None    Shift=    0.000
 RMSDP=8.39D-07 MaxDP=1.53D-05 DE=-8.95D-09 OVMax= 1.44D-05

 Cycle   8  Pass 1  IDiag  1:
 E= -594.371522638195     Delta-E=       -0.000000007484 Rises=F Damp=F
 DIIS: error= 8.53D-07 at cycle   4 NSaved=   4.
 NSaved= 4 IEnMin= 4 EnMin= -594.371522638195     IErMin= 4 ErrMin= 8.53D-07
 ErrMax= 8.53D-07  0.00D+00 EMaxC= 1.00D-01 BMatC= 1.50D-10 BMatP= 1.20D-08
 IDIUse=1 WtCom= 1.00D+00 WtEn= 0.00D+00
 Coeff-Com: -0.157D-01 0.536D-01 0.129D+00 0.833D+00
 Coeff:     -0.157D-01 0.536D-01 0.129D+00 0.833D+00
 Gap=     0.409 Goal=   None    Shift=    0.000
 RMSDP=1.68D-07 MaxDP=2.35D-06 DE=-7.48D-09 OVMax= 3.05D-06

 Cycle   9  Pass 1  IDiag  1:
 E= -594.371522638346     Delta-E=       -0.000000000151 Rises=F Damp=F
 DIIS: error= 1.70D-07 at cycle   5 NSaved=   5.
 NSaved= 5 IEnMin= 5 EnMin= -594.371522638346     IErMin= 5 ErrMin= 1.70D-07
 ErrMax= 1.70D-07  0.00D+00 EMaxC= 1.00D-01 BMatC= 7.26D-12 BMatP= 1.50D-10
 IDIUse=1 WtCom= 1.00D+00 WtEn= 0.00D+00
 Coeff-Com:  0.619D-03-0.159D-01-0.182D-01 0.871D-01 0.946D+00
 Coeff:      0.619D-03-0.159D-01-0.182D-01 0.871D-01 0.946D+00
 Gap=     0.409 Goal=   None    Shift=    0.000
 RMSDP=5.36D-08 MaxDP=7.97D-07 DE=-1.51D-10 OVMax= 1.15D-06

 Cycle  10  Pass 1  IDiag  1:
 E= -594.371522638356     Delta-E=       -0.000000000010 Rises=F Damp=F
 DIIS: error= 1.18D-07 at cycle   6 NSaved=   6.
 NSaved= 6 IEnMin= 6 EnMin= -594.371522638356     IErMin= 6 ErrMin= 1.18D-07
 ErrMax= 1.18D-07  0.00D+00 EMaxC= 1.00D-01 BMatC= 2.39D-12 BMatP= 7.26D-12
 IDIUse=1 WtCom= 1.00D+00 WtEn= 0.00D+00
 Coeff-Com:  0.126D-02-0.102D-01-0.163D-01-0.142D-01 0.421D+00 0.619D+00
 Coeff:      0.126D-02-0.102D-01-0.163D-01-0.142D-01 0.421D+00 0.619D+00
 Gap=     0.409 Goal=   None    Shift=    0.000
 RMSDP=1.47D-08 MaxDP=2.80D-07 DE=-9.78D-12 OVMax= 4.53D-07

 Cycle  11  Pass 1  IDiag  1:
 E= -594.371522638357     Delta-E=       -0.000000000001 Rises=F Damp=F
 DIIS: error= 1.91D-08 at cycle   7 NSaved=   7.
 NSaved= 7 IEnMin= 7 EnMin= -594.371522638357     IErMin= 7 ErrMin= 1.91D-08
 ErrMax= 1.91D-08  0.00D+00 EMaxC= 1.00D-01 BMatC= 9.59D-14 BMatP= 2.39D-12
 IDIUse=1 WtCom= 1.00D+00 WtEn= 0.00D+00
 Coeff-Com:  0.147D-03 0.152D-03-0.730D-03-0.140D-01-0.507D-01 0.114D+00
 Coeff-Com:  0.951D+00
 Coeff:      0.147D-03 0.152D-03-0.730D-03-0.140D-01-0.507D-01 0.114D+00
 Coeff:      0.951D+00
 Gap=     0.409 Goal=   None    Shift=    0.000
 RMSDP=6.64D-09 MaxDP=7.12D-08 DE=-6.82D-13 OVMax= 1.86D-07

 SCF Done:  E(RwB97XD) =  -594.371522638     A.U. after   11 cycles
            NFock= 11  Conv=0.66D-08     -V/T= 2.0023
 KE= 5.929907534661D+02 PE=-1.963096022611D+03 EE= 5.032252062150D+02
 Leave Link  502 at Tue Aug  9 14:37:25 2022, MaxMem=   104857600 cpu:              13.0 elap:               1.7
 (Enter /share/apps/gaussian/g16/l701.exe)
 ... and contract with generalized density number  0.
 Compute integral first derivatives.
 R6Disp: Adding Grimme-D2 dispersion energy 1st derivatives to the gradient.
 Leave Link  701 at Tue Aug  9 14:37:25 2022, MaxMem=   104857600 cpu:               1.1 elap:               0.2
 (Enter /share/apps/gaussian/g16/l702.exe)
 L702 exits ... SP integral derivatives will be done elsewhere.
 Leave Link  702 at Tue Aug  9 14:37:25 2022, MaxMem=   104857600 cpu:               0.1 elap:               0.0
 (Enter /share/apps/gaussian/g16/l703.exe)
 Integral derivatives from FoFJK, PRISM(SPDF).
 Compute integral first derivatives, UseDBF=F ICtDFT=           0.
 Calling FoFJK, ICntrl=      2127 FMM=F ISym2X=0 I1Cent= 0 IOpClX= 0 NMat=1 NMatS=1 NMatT=0.
 FoFJK:  IHMeth= 1 ICntrl=    2127 DoSepK=T KAlg= 0 I1Cent=           0 FoldK=F
 IRaf=         1 NMat=       1 IRICut=       1 DoRegI=T DoRafI=F ISym2E= 0 IDoP0=0 IntGTp=1.
 FoFCou: FMM=F IPFlag=           0 FMFlag=      100000 FMFlg1=         800
         NFxFlg=           0 DoJE=F BraDBF=F KetDBF=F FulRan=T
         wScrn=  0.000000 ICntrl=      2527 IOpCl=  0 I1Cent=           0 NGrid=           0
         NMat0=    1 NMatS0=      1 NMatT0=    0 NMatD0=    1 NMtDS0=    0 NMtDT0=    0
 Symmetry not used in FoFCou.
 Leave Link  703 at Tue Aug  9 14:37:26 2022, MaxMem=   104857600 cpu:               8.5 elap:               1.1
 (Enter /share/apps/gaussian/g16/l716.exe)
 Dipole        =-7.49423303D-01-3.43326999D-01-1.31365320D+00
 -------------------------------------------------------------------
 Center     Atomic                   Forces (Hartrees/Bohr)
 Number     Number              X              Y              Z
 -------------------------------------------------------------------
      1        8          -0.000000000   -0.000000000   -0.000000000
      2        8          -0.000000000   -0.000000000   -0.000000000
      3       13          -0.001849760    0.003547149    0.019916427
      4        1          -0.000000000   -0.000000000   -0.000000000
      5        1          -0.000000000   -0.000000000   -0.000000000
      6        9          -0.000000000   -0.000000000   -0.000000000
      7        9          -0.000000000   -0.000000000   -0.000000000
      8        1           0.018832903    0.018259140   -0.007926309
 -------------------------------------------------------------------
 Cartesian Forces:  Max     0.019916427 RMS     0.006962904
 Leave Link  716 at Tue Aug  9 14:37:26 2022, MaxMem=   104857600 cpu:               0.1 elap:               0.0
 (Enter /share/apps/gaussian/g16/l103.exe)

 GradGradGradGradGradGradGradGradGradGradGradGradGradGradGradGradGradGrad
 Berny optimization.
 Using GEDIIS/GDIIS optimizer.
 FormGI is forming the generalized inverse of G from B-inverse, IUseBI=4.
 Internal  Forces:  Max     0.027060854 RMS     0.006183918
 Search for a local minimum.
 Step number   2 out of a maximum of  100
 All quantities printed in internal units (Hartrees-Bohrs-Radians)
 RMS Force = .64104D-02 SwitMx=.10000D-02 MixMth= 1
 Mixed Optimization -- RFO/linear search
 Update second derivatives using D2CorX and points    1    2
 DE= -1.91D-03 DEPred=-1.82D-03 R= 1.05D+00
 TightC=F SS=  1.41D+00  RLast= 5.19D-02 DXNew= 5.0454D-01 1.5582D-01
 Trust test= 1.05D+00 RLast= 5.19D-02 DXMaxT set to 3.00D-01
 ITU=  1  0
 Use linear search instead of GDIIS.
     Eigenvalues ---    0.06982   0.14523   0.23319   0.34290   0.42504
     Eigenvalues ---    0.454041000.000001000.000001000.000001000.00000
     Eigenvalues --- 1000.000001000.000001000.000001000.000001000.00000
     Eigenvalues --- 1000.000001000.000001000.000001000.000001000.00000
     Eigenvalues --- 1000.000001000.000001000.000001000.000001000.00000
     Eigenvalues --- 1000.000001000.000001000.000001000.000001000.00000
     Eigenvalues --- 1000.000001000.000001000.000001000.000001000.00000
     Eigenvalues --- 1000.000001000.000001000.000001000.000001000.00000
     Eigenvalues --- 1000.000001000.00000
 RFO step:  Lambda=-1.31898094D-04 EMin= 6.98163828D-02
 Quartic linear search produced a step of  1.85866.
 Iteration  1 RMS(Cart)=  0.02023661 RMS(Int)=  0.00063105
 Iteration  2 RMS(Cart)=  0.00073446 RMS(Int)=  0.00020381
 New curvilinear step failed, DQL= 5.20D-06 SP=-4.70D-03.
 ITry= 1 IFail=1 DXMaxC= 1.05D-01 DCOld= 1.00D+10 DXMaxT= 3.00D-01 DXLimC= 3.00D+00 Rises=F
 Iteration  1 RMS(Cart)=  0.01972558 RMS(Int)=  0.00059827
 Iteration  2 RMS(Cart)=  0.00069920 RMS(Int)=  0.00019702
 New curvilinear step failed, DQL= 4.78D-06 SP=-9.70D-03.
 ITry= 2 IFail=1 DXMaxC= 1.02D-01 DCOld= 1.00D+10 DXMaxT= 3.00D-01 DXLimC= 3.00D+00 Rises=F
 Iteration  1 RMS(Cart)=  0.01922555 RMS(Int)=  0.00056718
 Iteration  2 RMS(Cart)=  0.00066502 RMS(Int)=  0.00019049
 New curvilinear step failed, DQL= 4.39D-06 SP=-1.48D-02.
 ITry= 3 IFail=1 DXMaxC= 9.87D-02 DCOld= 1.00D+10 DXMaxT= 3.00D-01 DXLimC= 3.00D+00 Rises=F
 Iteration  1 RMS(Cart)=  0.01873740 RMS(Int)=  0.00053778
 Iteration  2 RMS(Cart)=  0.00063191 RMS(Int)=  0.00018422
 New curvilinear step failed, DQL= 4.02D-06 SP=-2.01D-02.
 ITry= 4 IFail=1 DXMaxC= 9.54D-02 DCOld= 1.00D+10 DXMaxT= 3.00D-01 DXLimC= 3.00D+00 Rises=F
 Iteration  1 RMS(Cart)=  0.01826210 RMS(Int)=  0.00051006
 Iteration  2 RMS(Cart)=  0.00059985 RMS(Int)=  0.00017820
 New curvilinear step failed, DQL= 3.67D-06 SP=-2.55D-02.
 ITry= 5 IFail=1 DXMaxC= 9.21D-02 DCOld= 1.00D+10 DXMaxT= 3.00D-01 DXLimC= 3.00D+00 Rises=F
 Iteration  1 RMS(Cart)=  0.01780066 RMS(Int)=  0.00048401
 Iteration  2 RMS(Cart)=  0.00056882 RMS(Int)=  0.00017242
 New curvilinear step failed, DQL= 3.34D-06 SP=-3.09D-02.
 ITry= 6 IFail=1 DXMaxC= 8.88D-02 DCOld= 1.00D+10 DXMaxT= 3.00D-01 DXLimC= 3.00D+00 Rises=F
 Iteration  1 RMS(Cart)=  0.01735420 RMS(Int)=  0.00045965
 Iteration  2 RMS(Cart)=  0.00053880 RMS(Int)=  0.00016688
 New curvilinear step failed, DQL= 3.03D-06 SP=-3.63D-02.
 ITry= 7 IFail=1 DXMaxC= 8.55D-02 DCOld= 1.00D+10 DXMaxT= 3.00D-01 DXLimC= 3.00D+00 Rises=F
 Iteration  1 RMS(Cart)=  0.01692390 RMS(Int)=  0.00043694
 Iteration  2 RMS(Cart)=  0.00050977 RMS(Int)=  0.00016155
 New curvilinear step failed, DQL= 2.75D-06 SP=-4.17D-02.
 ITry= 8 IFail=1 DXMaxC= 8.23D-02 DCOld= 1.00D+10 DXMaxT= 3.00D-01 DXLimC= 3.00D+00 Rises=F
 Iteration  1 RMS(Cart)=  0.01651102 RMS(Int)=  0.00041589
 Iteration  2 RMS(Cart)=  0.00048173 RMS(Int)=  0.00015644
 New curvilinear step failed, DQL= 2.48D-06 SP=-4.71D-02.
 ITry= 9 IFail=1 DXMaxC= 7.90D-02 DCOld= 1.00D+10 DXMaxT= 3.00D-01 DXLimC= 3.00D+00 Rises=F
 Iteration  1 RMS(Cart)=  0.01611481 RMS(Int)=  0.00039642
 Iteration  2 RMS(Cart)=  0.00045400 RMS(Int)=  0.00015154
 New curvilinear step failed, DQL= 2.23D-06 SP=-5.29D-02.
 ITry=10 IFail=1 DXMaxC= 7.57D-02 DCOld= 1.00D+10 DXMaxT= 3.00D-01 DXLimC= 3.00D+00 Rises=F
 RedQX1 iteration     1 Try  1 RMS(Cart)=  0.00404732 RMS(Int)=  0.01333389 XScale=  5.00449757
 RedQX1 iteration     1 Try  2 RMS(Cart)=  0.00404484 RMS(Int)=  0.01001030 XScale=  2.50415908
 RedQX1 iteration     1 Try  3 RMS(Cart)=  0.00403506 RMS(Int)=  0.00669164 XScale=  1.67028524
 RedQX1 iteration     1 Try  4 RMS(Cart)=  0.00401141 RMS(Int)=  0.00337694 XScale=  1.25278361
 RedQX1 iteration     1 Try  5 RMS(Cart)=  0.00395062 RMS(Int)=  0.00027510 XScale=  1.00116872
 RedQX1 iteration     1 Try  6 RMS(Cart)=  0.00026505 RMS(Int)=  0.00018220 XScale=  0.99955240
 RedQX1 iteration     2 Try  1 RMS(Cart)=  0.00000239 RMS(Int)=  0.00018205 XScale=  0.99963777
 RedQX1 iteration     1 Try  1 RMS(Cart)=  0.00000688 RMS(Int)=  0.00005752 XScale=  6.99864385
 Variable       Old X    -DE/DX   Delta X   Delta X   Delta X     New X
                                 (Linear)    (Quad)   (Total)
    X1       -0.00028   0.01087   0.00000   0.00000  -0.00004  -0.00033
    Y1        0.00030   0.01537   0.00000   0.00000   0.00002   0.00033
    Z1        0.00040  -0.00264   0.00000   0.00000  -0.00001   0.00038
    X2        0.00015   0.00141   0.00000   0.00000   0.00002   0.00017
    Y2        0.00009   0.00023   0.00000   0.00000   0.00014   0.00024
    Z2        4.59859   0.00306   0.00000   0.00000  -0.00004   4.59855
    X4       -0.61906   0.00730   0.00000   0.00000   0.00007  -0.61899
    Y4        1.41952   0.00450   0.00000   0.00000   0.00003   1.41956
    Z4       -1.14941   0.00162   0.00000   0.00000   0.00000  -1.14941
    X5        0.18115  -0.00074   0.00000   0.00000  -0.00003   0.18112
    Y5        1.48234  -0.00125   0.00000   0.00000  -0.00001   1.48233
    Z5        6.00264   0.00142   0.00000   0.00000   0.00001   6.00265
    X6        2.56251  -0.00048   0.00000   0.00000  -0.00022   2.56229
    Y6        3.37628   0.00300   0.00000   0.00000  -0.00009   3.37619
    Z6        2.20195   0.00429   0.00000   0.00000  -0.00001   2.20193
    X7       -2.65108  -0.00138   0.00000   0.00000   0.00019  -2.65089
    Y7        3.51136  -0.00003   0.00000   0.00000  -0.00010   3.51126
    Z7        2.29553   0.00423   0.00000   0.00000   0.00005   2.29558
    R1        3.26781   0.00629   0.03201   0.00881   0.04085   3.30866
    R2        1.88711  -0.02706  -0.06863   0.00446  -0.06423   1.82287
    R3        3.01165  -0.00390  -0.01993  -0.00171  -0.02150   2.99015
    R4        2.90692  -0.00045   0.00150  -0.00007   0.00171   2.90863
    R5        2.94701  -0.00094  -0.00294  -0.00314  -0.00581   2.94119
    A1        1.53653   0.00604   0.00503   0.00019   0.00515   1.54168
    A2        1.89234   0.00538   0.02734   0.02238   0.04969   1.94203
    A3        1.91192  -0.00550  -0.01861   0.00028  -0.01867   1.89325
    A4        1.54293  -0.00384  -0.01005  -0.00283  -0.01290   1.53003
    A5        1.64172   0.00173  -0.00474  -0.00256  -0.00746   1.63426
    A6        1.76590  -0.00838  -0.01379  -0.00359  -0.01737   1.74853
    A7        1.84732  -0.00301  -0.01290  -0.00257  -0.01553   1.83179
    A8        1.93201   0.00233   0.00908   0.00088   0.00965   1.94166
    A9        1.97048   0.00292   0.01157   0.00245   0.01381   1.98428
   A10        2.19931   0.00155   0.00097   0.00216   0.00246   2.20177
    D1        2.83365  -0.00271   0.00060   0.00050   0.00115   2.83480
    D2       -1.49413  -0.00121   0.00661   0.00022   0.00675  -1.48738
    D3        0.82315  -0.00577  -0.00726  -0.00066  -0.00774   0.81541
    D4        0.91445   0.00059   0.01632  -0.00175   0.01446   0.92890
    D5        2.86985   0.00209   0.02233  -0.00203   0.02006   2.88991
    D6       -1.09605  -0.00248   0.00845  -0.00291   0.00556  -1.09049
    D7        3.03566  -0.00257  -0.00053  -0.00047  -0.00098   3.03468
    D8        1.22805   0.00541   0.01477   0.00431   0.01936   1.24741
    D9       -1.34347  -0.00444  -0.01444  -0.00398  -0.01880  -1.36226
         Item               Value     Threshold  Converged?
 Maximum Force            0.027061     0.000450     NO 
 RMS     Force            0.006410     0.000300     NO 
 Maximum Displacement     0.105299     0.001800     NO 
 RMS     Displacement     0.019989     0.001200     NO 
 Predicted change in Energy=-1.742021D-03
 Lowest energy point so far.  Saving SCF results.
 GradGradGradGradGradGradGradGradGradGradGradGradGradGradGradGradGradGrad

 Leave Link  103 at Tue Aug  9 14:37:26 2022, MaxMem=   104857600 cpu:               0.4 elap:               0.1
 (Enter /share/apps/gaussian/g16/l202.exe)
                          Input orientation:                          
 ---------------------------------------------------------------------
 Center     Atomic      Atomic             Coordinates (Angstroms)
 Number     Number       Type             X           Y           Z
 ---------------------------------------------------------------------
      1          8           0       -0.000173    0.000173    0.000203
      2          8           0        0.000093    0.000126    2.433450
      3         13           0       -0.028998    1.136060    1.332294
      4          1           0       -0.327553    0.751197   -0.608239
      5          1           0        0.095845    0.784417    3.176465
      6          9           0        1.355906    1.786600    1.165213
      7          9           0       -1.402788    1.858077    1.214768
      8          1           0       -0.703695   -0.654537    0.083310
 ---------------------------------------------------------------------
                    Distance matrix (angstroms):
                    1          2          3          4          5
     1  O    0.000000
     2  O    2.433247   0.000000
     3  Al   1.750867   1.582320   0.000000
     4  H    1.020498   3.150132   2.000730   0.000000
     5  H    3.273056   1.084597   1.881544   3.808458   0.000000
     6  F    2.527354   2.576460   1.539181   2.655415   2.576288
     7  F    2.625700   2.627783   1.556412   2.388444   2.692007
     8  H    0.964623   2.539106   2.285041   1.611152   3.503921
                    6          7          8
     6  F    0.000000
     7  F    2.760065   0.000000
     8  H    3.372184   2.842913   0.000000
 Symmetry turned off by external request.
 Stoichiometry    AlF2H3O2
 Framework group  C1[X(AlF2H3O2)]
 Deg. of freedom    18
 Full point group                 C1      NOp   1
 Rotational constants (GHZ):           4.3128803           3.9219049           3.7591110
 Leave Link  202 at Tue Aug  9 14:37:26 2022, MaxMem=   104857600 cpu:               0.1 elap:               0.0
 (Enter /share/apps/gaussian/g16/l301.exe)
 Basis read from rwf:  (5D, 7F)
 No pseudopotential information found on rwf file.
    83 basis functions,   179 primitive gaussians,    88 cartesian basis functions
    25 alpha electrons       25 beta electrons
       nuclear repulsion energy       272.5014834382 Hartrees.
 IExCor= 4639 DFT=T Ex+Corr=wB97XD ExCW=0 ScaHFX=  1.000000
 ScaDFX=  1.000000  1.000000  1.000000  1.000000 ScalE2=  1.000000  1.000000
 IRadAn=      5 IRanWt=     -1 IRanGd=            0 ICorTp=0 IEmpDi=121
 HFx  wShort=  0.000000 wLong=  0.200000 cFull=  0.222036 cShort=  0.000000 cLong=  0.777964
 DFx  wShort=  0.000000 wLong=  0.200000 cFull=  0.000000 cShort=  0.000000 cLong=  1.000000
 NAtoms=    8 NActive=    8 NUniq=    8 SFac= 1.00D+00 NAtFMM=   60 NAOKFM=F Big=F
 Integral buffers will be    131072 words long.
 Raffenetti 2 integral format.
 Two-electron integral symmetry is turned off.
 R6Disp:  Grimme-D2 Dispersion energy=       -0.0022075412 Hartrees.
 Nuclear repulsion after empirical dispersion term =      272.4992758970 Hartrees.
 No density basis found on file    724.
 Leave Link  301 at Tue Aug  9 14:37:26 2022, MaxMem=   104857600 cpu:               0.4 elap:               0.1
 (Enter /share/apps/gaussian/g16/l302.exe)
 NPDir=0 NMtPBC=     1 NCelOv=     1 NCel=       1 NClECP=     1 NCelD=      1
         NCelK=      1 NCelE2=     1 NClLst=     1 CellRange=     0.0.
 One-electron integrals computed using PRISM.
 NBasis=    83 RedAO= T EigKep=  1.14D-02  NBF=    83
 NBsUse=    83 1.00D-06 EigRej= -1.00D+00 NBFU=    83
 Precomputing XC quadrature grid using
 IXCGrd= 4 IRadAn=           5 IRanWt=          -1 IRanGd=           0 AccXCQ= 0.00D+00.
 Generated NRdTot=       0 NPtTot=           0 NUsed=           0 NTot=          32
 NSgBfM=    88    88    88    88    88 MxSgAt=     8 MxSgA2=     8.
 Leave Link  302 at Tue Aug  9 14:37:27 2022, MaxMem=   104857600 cpu:               1.1 elap:               0.2
 (Enter /share/apps/gaussian/g16/l303.exe)
 DipDrv:  MaxL=1.
 Leave Link  303 at Tue Aug  9 14:37:27 2022, MaxMem=   104857600 cpu:               0.2 elap:               0.0
 (Enter /share/apps/gaussian/g16/l401.exe)
 Initial guess from the checkpoint file:  "Al_F_1_r_P.chk"
 B after Tr=     0.004310    0.008549    0.005195
         Rot=    0.999999   -0.001095    0.000560   -0.000380 Ang=  -0.15 deg.
 Guess basis will be translated and rotated to current coordinates.
 JPrj=2 DoOrth=T DoCkMO=T.
 Generating alternative initial guess.
 ExpMin= 5.57D-02 ExpMax= 1.40D+04 ExpMxC= 2.10D+03 IAcc=3 IRadAn=         5 AccDes= 0.00D+00
 Harris functional with IExCor= 4639 and IRadAn=       5 diagonalized for initial guess.
 HarFok:  IExCor= 4639 AccDes= 0.00D+00 IRadAn=         5 IDoV= 1 UseB2=F ITyADJ=14
 ICtDFT=  3500011 ScaDFX=  1.000000  1.000000  1.000000  1.000000
 FoFCou: FMM=F IPFlag=           0 FMFlag=      100000 FMFlg1=           0
         NFxFlg=           0 DoJE=T BraDBF=F KetDBF=T FulRan=T
         wScrn=  0.000000 ICntrl=       500 IOpCl=  0 I1Cent=   200000004 NGrid=           0
         NMat0=    1 NMatS0=      1 NMatT0=    0 NMatD0=    1 NMtDS0=    0 NMtDT0=    0
 Symmetry not used in FoFCou.
 Harris En= -577.689856475114    
 Leave Link  401 at Tue Aug  9 14:37:27 2022, MaxMem=   104857600 cpu:               2.5 elap:               0.3
 (Enter /share/apps/gaussian/g16/l502.exe)
 Keep R1 ints in memory in canonical form, NReq=19764964.
 FoFCou: FMM=F IPFlag=           0 FMFlag=           0 FMFlg1=           0
         NFxFlg=           0 DoJE=F BraDBF=F KetDBF=F FulRan=T
         wScrn=  0.000000 ICntrl=       600 IOpCl=  0 I1Cent=           0 NGrid=           0
         NMat0=    1 NMatS0=   3486 NMatT0=    0 NMatD0=    1 NMtDS0=    0 NMtDT0=    0
 Symmetry not used in FoFCou.
 Two-electron integral symmetry not used.
 Closed shell SCF:
 Using DIIS extrapolation, IDIIS=  1040.
 NGot=   104857600 LenX=    92684688 LenY=    92676503
 Requested convergence on RMS density matrix=1.00D-08 within 128 cycles.
 Requested convergence on MAX density matrix=1.00D-06.
 Requested convergence on             energy=1.00D-06.
 No special actions if energy rises.
 Integral accuracy reduced to 1.0D-05 until final iterations.

 Cycle   1  Pass 0  IDiag  1:
 E= -594.372310866503    
 DIIS: error= 2.00D-03 at cycle   1 NSaved=   1.
 NSaved= 1 IEnMin= 1 EnMin= -594.372310866503     IErMin= 1 ErrMin= 2.00D-03
 ErrMax= 2.00D-03  0.00D+00 EMaxC= 1.00D-01 BMatC= 8.02D-04 BMatP= 8.02D-04
 IDIUse=3 WtCom= 9.80D-01 WtEn= 2.00D-02
 Coeff-Com:  0.100D+01
 Coeff-En:   0.100D+01
 Coeff:      0.100D+01
 Gap=     0.560 Goal=   None    Shift=    0.000
 GapD=    0.560 DampG=2.000 DampE=1.000 DampFc=2.0000 IDamp=-1.
 RMSDP=3.86D-04 MaxDP=6.28D-03              OVMax= 6.54D-03

 Cycle   2  Pass 0  IDiag  1:
 E= -594.373055267236     Delta-E=       -0.000744400733 Rises=F Damp=F
 DIIS: error= 4.75D-04 at cycle   2 NSaved=   2.
 NSaved= 2 IEnMin= 2 EnMin= -594.373055267236     IErMin= 2 ErrMin= 4.75D-04
 ErrMax= 4.75D-04  0.00D+00 EMaxC= 1.00D-01 BMatC= 3.31D-05 BMatP= 8.02D-04
 IDIUse=3 WtCom= 9.95D-01 WtEn= 4.75D-03
 Coeff-Com:  0.142D-01 0.986D+00
 Coeff-En:   0.000D+00 0.100D+01
 Coeff:      0.141D-01 0.986D+00
 Gap=     0.417 Goal=   None    Shift=    0.000
 RMSDP=8.32D-05 MaxDP=1.80D-03 DE=-7.44D-04 OVMax= 2.17D-03

 Cycle   3  Pass 0  IDiag  1:
 E= -594.373083548422     Delta-E=       -0.000028281186 Rises=F Damp=F
 DIIS: error= 3.01D-04 at cycle   3 NSaved=   3.
 NSaved= 3 IEnMin= 3 EnMin= -594.373083548422     IErMin= 3 ErrMin= 3.01D-04
 ErrMax= 3.01D-04  0.00D+00 EMaxC= 1.00D-01 BMatC= 1.47D-05 BMatP= 3.31D-05
 IDIUse=3 WtCom= 9.97D-01 WtEn= 3.01D-03
 Coeff-Com: -0.321D-01 0.385D+00 0.647D+00
 Coeff-En:   0.000D+00 0.000D+00 0.100D+01
 Coeff:     -0.320D-01 0.384D+00 0.648D+00
 Gap=     0.417 Goal=   None    Shift=    0.000
 RMSDP=3.30D-05 MaxDP=1.05D-03 DE=-2.83D-05 OVMax= 9.51D-04

 Cycle   4  Pass 0  IDiag  1:
 E= -594.373094014141     Delta-E=       -0.000010465719 Rises=F Damp=F
 DIIS: error= 7.37D-05 at cycle   4 NSaved=   4.
 NSaved= 4 IEnMin= 4 EnMin= -594.373094014141     IErMin= 4 ErrMin= 7.37D-05
 ErrMax= 7.37D-05  0.00D+00 EMaxC= 1.00D-01 BMatC= 1.10D-06 BMatP= 1.47D-05
 IDIUse=1 WtCom= 1.00D+00 WtEn= 0.00D+00
 Coeff-Com: -0.140D-01 0.261D-01 0.221D+00 0.767D+00
 Coeff:     -0.140D-01 0.261D-01 0.221D+00 0.767D+00
 Gap=     0.417 Goal=   None    Shift=    0.000
 RMSDP=1.01D-05 MaxDP=2.34D-04 DE=-1.05D-05 OVMax= 2.56D-04

 Cycle   5  Pass 0  IDiag  1:
 E= -594.373094976691     Delta-E=       -0.000000962550 Rises=F Damp=F
 DIIS: error= 1.28D-05 at cycle   5 NSaved=   5.
 NSaved= 5 IEnMin= 5 EnMin= -594.373094976691     IErMin= 5 ErrMin= 1.28D-05
 ErrMax= 1.28D-05  0.00D+00 EMaxC= 1.00D-01 BMatC= 2.04D-08 BMatP= 1.10D-06
 IDIUse=1 WtCom= 1.00D+00 WtEn= 0.00D+00
 Coeff-Com:  0.170D-02-0.226D-01-0.340D-01 0.146D-01 0.104D+01
 Coeff:      0.170D-02-0.226D-01-0.340D-01 0.146D-01 0.104D+01
 Gap=     0.417 Goal=   None    Shift=    0.000
 RMSDP=3.80D-06 MaxDP=7.50D-05 DE=-9.63D-07 OVMax= 1.12D-04

 Initial convergence to 1.0D-05 achieved.  Increase integral accuracy.
 Cycle   6  Pass 1  IDiag  1:
 E= -594.373109759626     Delta-E=       -0.000014782934 Rises=F Damp=F
 DIIS: error= 4.31D-05 at cycle   1 NSaved=   1.
 NSaved= 1 IEnMin= 1 EnMin= -594.373109759626     IErMin= 1 ErrMin= 4.31D-05
 ErrMax= 4.31D-05  0.00D+00 EMaxC= 1.00D-01 BMatC= 2.47D-07 BMatP= 2.47D-07
 IDIUse=1 WtCom= 1.00D+00 WtEn= 0.00D+00
 Coeff-Com:  0.100D+01
 Coeff:      0.100D+01
 Gap=     0.417 Goal=   None    Shift=    0.000
 RMSDP=3.80D-06 MaxDP=7.50D-05 DE=-1.48D-05 OVMax= 9.51D-05

 Cycle   7  Pass 1  IDiag  1:
 E= -594.373109979954     Delta-E=       -0.000000220328 Rises=F Damp=F
 DIIS: error= 1.04D-05 at cycle   2 NSaved=   2.
 NSaved= 2 IEnMin= 2 EnMin= -594.373109979954     IErMin= 2 ErrMin= 1.04D-05
 ErrMax= 1.04D-05  0.00D+00 EMaxC= 1.00D-01 BMatC= 1.27D-08 BMatP= 2.47D-07
 IDIUse=1 WtCom= 1.00D+00 WtEn= 0.00D+00
 Coeff-Com:  0.252D-01 0.975D+00
 Coeff:      0.252D-01 0.975D+00
 Gap=     0.417 Goal=   None    Shift=    0.000
 RMSDP=1.99D-06 MaxDP=4.67D-05 DE=-2.20D-07 OVMax= 4.98D-05

 Cycle   8  Pass 1  IDiag  1:
 E= -594.373109984720     Delta-E=       -0.000000004766 Rises=F Damp=F
 DIIS: error= 8.27D-06 at cycle   3 NSaved=   3.
 NSaved= 3 IEnMin= 3 EnMin= -594.373109984720     IErMin= 3 ErrMin= 8.27D-06
 ErrMax= 8.27D-06  0.00D+00 EMaxC= 1.00D-01 BMatC= 1.04D-08 BMatP= 1.27D-08
 IDIUse=1 WtCom= 1.00D+00 WtEn= 0.00D+00
 Coeff-Com: -0.421D-01 0.483D+00 0.560D+00
 Coeff:     -0.421D-01 0.483D+00 0.560D+00
 Gap=     0.417 Goal=   None    Shift=    0.000
 RMSDP=8.29D-07 MaxDP=2.24D-05 DE=-4.77D-09 OVMax= 2.07D-05

 Cycle   9  Pass 1  IDiag  1:
 E= -594.373109992040     Delta-E=       -0.000000007320 Rises=F Damp=F
 DIIS: error= 1.20D-06 at cycle   4 NSaved=   4.
 NSaved= 4 IEnMin= 4 EnMin= -594.373109992040     IErMin= 4 ErrMin= 1.20D-06
 ErrMax= 1.20D-06  0.00D+00 EMaxC= 1.00D-01 BMatC= 1.93D-10 BMatP= 1.04D-08
 IDIUse=1 WtCom= 1.00D+00 WtEn= 0.00D+00
 Coeff-Com: -0.124D-01 0.530D-01 0.145D+00 0.814D+00
 Coeff:     -0.124D-01 0.530D-01 0.145D+00 0.814D+00
 Gap=     0.417 Goal=   None    Shift=    0.000
 RMSDP=1.54D-07 MaxDP=3.39D-06 DE=-7.32D-09 OVMax= 3.96D-06

 Cycle  10  Pass 1  IDiag  1:
 E= -594.373109992211     Delta-E=       -0.000000000171 Rises=F Damp=F
 DIIS: error= 2.03D-07 at cycle   5 NSaved=   5.
 NSaved= 5 IEnMin= 5 EnMin= -594.373109992211     IErMin= 5 ErrMin= 2.03D-07
 ErrMax= 2.03D-07  0.00D+00 EMaxC= 1.00D-01 BMatC= 7.50D-12 BMatP= 1.93D-10
 IDIUse=1 WtCom= 1.00D+00 WtEn= 0.00D+00
 Coeff-Com: -0.251D-03-0.132D-01-0.409D-02 0.135D+00 0.882D+00
 Coeff:     -0.251D-03-0.132D-01-0.409D-02 0.135D+00 0.882D+00
 Gap=     0.417 Goal=   None    Shift=    0.000
 RMSDP=4.25D-08 MaxDP=5.96D-07 DE=-1.71D-10 OVMax= 8.59D-07

 Cycle  11  Pass 1  IDiag  1:
 E= -594.373109992216     Delta-E=       -0.000000000005 Rises=F Damp=F
 DIIS: error= 9.99D-08 at cycle   6 NSaved=   6.
 NSaved= 6 IEnMin= 6 EnMin= -594.373109992216     IErMin= 6 ErrMin= 9.99D-08
 ErrMax= 9.99D-08  0.00D+00 EMaxC= 1.00D-01 BMatC= 2.18D-12 BMatP= 7.50D-12
 IDIUse=1 WtCom= 1.00D+00 WtEn= 0.00D+00
 Coeff-Com:  0.778D-03-0.964D-02-0.131D-01-0.175D-02 0.386D+00 0.638D+00
 Coeff:      0.778D-03-0.964D-02-0.131D-01-0.175D-02 0.386D+00 0.638D+00
 Gap=     0.417 Goal=   None    Shift=    0.000
 RMSDP=1.35D-08 MaxDP=2.91D-07 DE=-5.12D-12 OVMax= 3.07D-07

 Cycle  12  Pass 1  IDiag  1:
 E= -594.373109992220     Delta-E=       -0.000000000004 Rises=F Damp=F
 DIIS: error= 1.43D-08 at cycle   7 NSaved=   7.
 NSaved= 7 IEnMin= 7 EnMin= -594.373109992220     IErMin= 7 ErrMin= 1.43D-08
 ErrMax= 1.43D-08  0.00D+00 EMaxC= 1.00D-01 BMatC= 5.88D-14 BMatP= 2.18D-12
 IDIUse=1 WtCom= 1.00D+00 WtEn= 0.00D+00
 Coeff-Com:  0.172D-03-0.788D-04-0.190D-02-0.158D-01-0.395D-01 0.871D-01
 Coeff-Com:  0.970D+00
 Coeff:      0.172D-03-0.788D-04-0.190D-02-0.158D-01-0.395D-01 0.871D-01
 Coeff:      0.970D+00
 Gap=     0.417 Goal=   None    Shift=    0.000
 RMSDP=5.60D-09 MaxDP=6.61D-08 DE=-4.09D-12 OVMax= 1.54D-07

 SCF Done:  E(RwB97XD) =  -594.373109992     A.U. after   12 cycles
            NFock= 12  Conv=0.56D-08     -V/T= 2.0022
 KE= 5.930487927717D+02 PE=-1.963109179477D+03 EE= 5.031880008165D+02
 Leave Link  502 at Tue Aug  9 14:37:29 2022, MaxMem=   104857600 cpu:              13.4 elap:               1.8
 (Enter /share/apps/gaussian/g16/l701.exe)
 ... and contract with generalized density number  0.
 Compute integral first derivatives.
 R6Disp: Adding Grimme-D2 dispersion energy 1st derivatives to the gradient.
 Leave Link  701 at Tue Aug  9 14:37:29 2022, MaxMem=   104857600 cpu:               1.2 elap:               0.2
 (Enter /share/apps/gaussian/g16/l702.exe)
 L702 exits ... SP integral derivatives will be done elsewhere.
 Leave Link  702 at Tue Aug  9 14:37:29 2022, MaxMem=   104857600 cpu:               0.1 elap:               0.0
 (Enter /share/apps/gaussian/g16/l703.exe)
 Integral derivatives from FoFJK, PRISM(SPDF).
 Compute integral first derivatives, UseDBF=F ICtDFT=           0.
 Calling FoFJK, ICntrl=      2127 FMM=F ISym2X=0 I1Cent= 0 IOpClX= 0 NMat=1 NMatS=1 NMatT=0.
 FoFJK:  IHMeth= 1 ICntrl=    2127 DoSepK=T KAlg= 0 I1Cent=           0 FoldK=F
 IRaf=         1 NMat=       1 IRICut=       1 DoRegI=T DoRafI=F ISym2E= 0 IDoP0=0 IntGTp=1.
 FoFCou: FMM=F IPFlag=           0 FMFlag=      100000 FMFlg1=         800
         NFxFlg=           0 DoJE=F BraDBF=F KetDBF=F FulRan=T
         wScrn=  0.000000 ICntrl=      2527 IOpCl=  0 I1Cent=           0 NGrid=           0
         NMat0=    1 NMatS0=      1 NMatT0=    0 NMatD0=    1 NMtDS0=    0 NMtDT0=    0
 Symmetry not used in FoFCou.
 Leave Link  703 at Tue Aug  9 14:37:30 2022, MaxMem=   104857600 cpu:               8.4 elap:               1.1
 (Enter /share/apps/gaussian/g16/l716.exe)
 Dipole        =-7.32825341D-01-3.18849820D-01-1.28139286D+00
 -------------------------------------------------------------------
 Center     Atomic                   Forces (Hartrees/Bohr)
 Number     Number              X              Y              Z
 -------------------------------------------------------------------
      1        8          -0.000000000   -0.000000000   -0.000000000
      2        8          -0.000000000   -0.000000000   -0.000000000
      3       13          -0.000429247    0.003218661    0.003218910
      4        1          -0.000000000   -0.000000000   -0.000000000
      5        1          -0.000000000   -0.000000000   -0.000000000
      6        9          -0.000000000   -0.000000000   -0.000000000
      7        9          -0.000000000   -0.000000000   -0.000000000
      8        1          -0.002754240   -0.002330294   -0.001742920
 -------------------------------------------------------------------
 Cartesian Forces:  Max     0.003218910 RMS     0.001240955
[...]
     10  0.000000D+00  0.000000D+00  0.000000D+00  0.000000D+00  0.000000D+00
     11  0.000000D+00  0.000000D+00  0.000000D+00  0.000000D+00  0.000000D+00
     12  0.000000D+00  0.000000D+00  0.000000D+00  0.000000D+00  0.000000D+00
     13  0.000000D+00  0.000000D+00  0.000000D+00  0.000000D+00  0.000000D+00
     14  0.000000D+00  0.000000D+00  0.000000D+00  0.000000D+00  0.000000D+00
     15  0.000000D+00  0.000000D+00  0.000000D+00  0.000000D+00  0.000000D+00
     16  0.000000D+00  0.000000D+00  0.000000D+00  0.000000D+00  0.000000D+00
     17  0.000000D+00  0.000000D+00  0.000000D+00  0.000000D+00  0.000000D+00
     18  0.000000D+00  0.000000D+00  0.000000D+00  0.000000D+00  0.000000D+00
     19  0.000000D+00  0.000000D+00  0.000000D+00  0.000000D+00  0.000000D+00
     20  0.000000D+00  0.000000D+00  0.000000D+00  0.000000D+00  0.000000D+00
     21  0.000000D+00  0.000000D+00  0.000000D+00  0.000000D+00  0.000000D+00
     22  0.000000D+00  0.000000D+00  0.000000D+00  0.000000D+00  0.000000D+00
     23  0.000000D+00  0.000000D+00  0.000000D+00  0.000000D+00  0.000000D+00
     24  0.000000D+00  0.000000D+00  0.000000D+00  0.000000D+00  0.000000D+00
                6             7             8             9            10 
      6  0.000000D+00
      7  0.000000D+00  0.831521D+00
      8  0.000000D+00  0.243290D-02  0.548975D+00
      9  0.000000D+00 -0.126446D-02 -0.205957D+00  0.453031D+00
     10  0.000000D+00  0.000000D+00  0.000000D+00  0.000000D+00  0.000000D+00
     11  0.000000D+00  0.000000D+00  0.000000D+00  0.000000D+00  0.000000D+00
     12  0.000000D+00  0.000000D+00  0.000000D+00  0.000000D+00  0.000000D+00
     13  0.000000D+00  0.000000D+00  0.000000D+00  0.000000D+00  0.000000D+00
     14  0.000000D+00  0.000000D+00  0.000000D+00  0.000000D+00  0.000000D+00
     15  0.000000D+00  0.000000D+00  0.000000D+00  0.000000D+00  0.000000D+00
     16  0.000000D+00  0.000000D+00  0.000000D+00  0.000000D+00  0.000000D+00
     17  0.000000D+00  0.000000D+00  0.000000D+00  0.000000D+00  0.000000D+00
     18  0.000000D+00  0.000000D+00  0.000000D+00  0.000000D+00  0.000000D+00
     19  0.000000D+00  0.000000D+00  0.000000D+00  0.000000D+00  0.000000D+00
     20  0.000000D+00  0.000000D+00  0.000000D+00  0.000000D+00  0.000000D+00
     21  0.000000D+00  0.000000D+00  0.000000D+00  0.000000D+00  0.000000D+00
     22  0.000000D+00  0.114378D-03  0.485141D-03 -0.116596D-02  0.000000D+00
     23  0.000000D+00 -0.983490D-02 -0.114793D-01 -0.718792D-02  0.000000D+00
     24  0.000000D+00 -0.114024D-01 -0.114508D-01  0.519149D-02  0.000000D+00
               11            12            13            14            15 
     11  0.000000D+00
     12  0.000000D+00  0.000000D+00
     13  0.000000D+00  0.000000D+00  0.000000D+00
     14  0.000000D+00  0.000000D+00  0.000000D+00  0.000000D+00
     15  0.000000D+00  0.000000D+00  0.000000D+00  0.000000D+00  0.000000D+00
     16  0.000000D+00  0.000000D+00  0.000000D+00  0.000000D+00  0.000000D+00
     17  0.000000D+00  0.000000D+00  0.000000D+00  0.000000D+00  0.000000D+00
     18  0.000000D+00  0.000000D+00  0.000000D+00  0.000000D+00  0.000000D+00
     19  0.000000D+00  0.000000D+00  0.000000D+00  0.000000D+00  0.000000D+00
     20  0.000000D+00  0.000000D+00  0.000000D+00  0.000000D+00  0.000000D+00
     21  0.000000D+00  0.000000D+00  0.000000D+00  0.000000D+00  0.000000D+00
     22  0.000000D+00  0.000000D+00  0.000000D+00  0.000000D+00  0.000000D+00
     23  0.000000D+00  0.000000D+00  0.000000D+00  0.000000D+00  0.000000D+00
     24  0.000000D+00  0.000000D+00  0.000000D+00  0.000000D+00  0.000000D+00
               16            17            18            19            20 
     16  0.000000D+00
     17  0.000000D+00  0.000000D+00
     18  0.000000D+00  0.000000D+00  0.000000D+00
     19  0.000000D+00  0.000000D+00  0.000000D+00  0.000000D+00
     20  0.000000D+00  0.000000D+00  0.000000D+00  0.000000D+00  0.000000D+00
     21  0.000000D+00  0.000000D+00  0.000000D+00  0.000000D+00  0.000000D+00
     22  0.000000D+00  0.000000D+00  0.000000D+00  0.000000D+00  0.000000D+00
     23  0.000000D+00  0.000000D+00  0.000000D+00  0.000000D+00  0.000000D+00
     24  0.000000D+00  0.000000D+00  0.000000D+00  0.000000D+00  0.000000D+00
               21            22            23            24 
     21  0.000000D+00
     22  0.000000D+00  0.286131D+00
     23  0.000000D+00  0.255079D+00  0.285631D+00
     24  0.000000D+00 -0.503868D-02 -0.256529D-01  0.317233D-01
 FormGI is forming the generalized inverse of G from B-inverse, IUseBI=4.
 Leave Link  716 at Tue Aug  9 14:38:01 2022, MaxMem=   104857600 cpu:               0.2 elap:               0.0
 (Enter /share/apps/gaussian/g16/l103.exe)

 GradGradGradGradGradGradGradGradGradGradGradGradGradGradGradGradGradGrad
 Berny optimization.
 Red2BG is reusing G-inverse.
 Internal  Forces:  Max     0.000043462 RMS     0.000019321
 Search for a local minimum.
 Step number   1 out of a maximum of    2
 All quantities printed in internal units (Hartrees-Bohrs-Radians)
 Second derivative matrix not updated -- analytic derivatives used.
 ITU=  0
     Eigenvalues ---    0.02907   0.05930   0.13589   0.27322   0.29962
     Eigenvalues ---    0.542281000.000001000.000001000.000001000.00000
     Eigenvalues --- 1000.000001000.000001000.000001000.000001000.00000
     Eigenvalues --- 1000.000001000.000001000.000001000.000001000.00000
     Eigenvalues --- 1000.000001000.000001000.000001000.000001000.00000
     Eigenvalues --- 1000.000001000.000001000.000001000.000001000.00000
     Eigenvalues --- 1000.000001000.000001000.000001000.000001000.00000
     Eigenvalues --- 1000.000001000.000001000.000001000.000001000.00000
     Eigenvalues --- 1000.000001000.00000
 Angle between quadratic step and forces=  47.44 degrees.
 Linear search not attempted -- first point.
 Iteration  1 RMS(Cart)=  0.00025168 RMS(Int)=  0.00000012
 Iteration  2 RMS(Cart)=  0.00000012 RMS(Int)=  0.00000004
 ITry= 1 IFail=0 DXMaxC= 1.11D-03 DCOld= 1.00D+10 DXMaxT= 3.00D-01 DXLimC= 3.00D+00 Rises=F
 Variable       Old X    -DE/DX   Delta X   Delta X   Delta X     New X
                                 (Linear)    (Quad)   (Total)
    X1       -0.00033   0.00004   0.00000   0.00000   0.00000  -0.00033
    Y1        0.00033  -0.00004   0.00000   0.00000   0.00000   0.00033
    Z1        0.00038   0.00001   0.00000   0.00000   0.00000   0.00038
    X2        0.00017   0.00001   0.00000   0.00000   0.00000   0.00017
    Y2        0.00024  -0.00003   0.00000   0.00000   0.00000   0.00024
    Z2        4.59855   0.00002   0.00000   0.00000   0.00000   4.59855
    X4       -0.61899   0.00000   0.00000   0.00000   0.00000  -0.61899
    Y4        1.41956  -0.00000   0.00000   0.00000   0.00000   1.41956
    Z4       -1.14941  -0.00000   0.00000   0.00000   0.00000  -1.14941
    X5        0.18112   0.00000   0.00000   0.00000   0.00000   0.18112
    Y5        1.48233  -0.00000   0.00000   0.00000   0.00000   1.48233
    Z5        6.00265   0.00000   0.00000   0.00000   0.00000   6.00265
    X6        2.56229  -0.00000   0.00000   0.00000   0.00000   2.56229
    Y6        3.37619  -0.00002   0.00000   0.00000   0.00000   3.37619
    Z6        2.20193   0.00001   0.00000   0.00000   0.00000   2.20193
    X7       -2.65089   0.00001   0.00000   0.00000   0.00000  -2.65089
    Y7        3.51126  -0.00004   0.00000   0.00000   0.00000   3.51126
    Z7        2.29558   0.00001   0.00000   0.00000   0.00000   2.29558
    R1        3.32229  -0.00002   0.00000  -0.00021  -0.00021   3.32209
    R2        1.82818  -0.00001   0.00000  -0.00005  -0.00005   1.82813
    R3        2.98827  -0.00004   0.00000  -0.00016  -0.00016   2.98811
    R4        2.90818   0.00001   0.00000   0.00010   0.00010   2.90828
    R5        2.93667   0.00003   0.00000   0.00013   0.00013   2.93680
    A1        1.54183   0.00000   0.00000   0.00005   0.00005   1.54188
    A2        1.98265   0.00002   0.00000   0.00059   0.00059   1.98323
    A3        1.87765   0.00001   0.00000   0.00056   0.00056   1.87821
    A4        1.52559  -0.00001   0.00000   0.00007   0.00007   1.52566
    A5        1.63005   0.00002   0.00000   0.00013   0.00013   1.63017
    A6        1.74320  -0.00000   0.00000   0.00005   0.00005   1.74325
    A7        1.82772   0.00001   0.00000   0.00004   0.00004   1.82776
    A8        1.94282   0.00002   0.00000   0.00003   0.00003   1.94285
    A9        1.98759   0.00001   0.00000   0.00002   0.00002   1.98761
   A10        2.20512  -0.00003   0.00000  -0.00015  -0.00015   2.20497
    D1        2.83542  -0.00001   0.00000  -0.00000  -0.00000   2.83542
    D2       -1.48723   0.00001   0.00000   0.00007   0.00007  -1.48717
    D3        0.81470  -0.00002   0.00000  -0.00007  -0.00007   0.81464
    D4        0.94195  -0.00002   0.00000  -0.00070  -0.00070   0.94124
    D5        2.90248  -0.00000   0.00000  -0.00064  -0.00064   2.90185
    D6       -1.07877  -0.00004   0.00000  -0.00077  -0.00077  -1.07954
    D7        3.03409  -0.00000   0.00000   0.00000   0.00000   3.03409
    D8        1.25415  -0.00001   0.00000  -0.00011  -0.00011   1.25405
    D9       -1.36873   0.00002   0.00000   0.00011   0.00011  -1.36862
         Item               Value     Threshold  Converged?
 Maximum Force            0.000041     0.000450     YES
 RMS     Force            0.000018     0.000300     YES
 Maximum Displacement     0.001110     0.001800     YES
 RMS     Displacement     0.000252     0.001200     YES
 Predicted change in Energy=-4.458307D-08
 Optimization completed.
    -- Stationary point found.
                           ----------------------------
                           !   Optimized Parameters   !
                           ! (Angstroms and Degrees)  !
 --------------------------                            --------------------------
 ! Name  Definition              Value          Derivative Info.                !
 --------------------------------------------------------------------------------
 ! X1    R(1,-1)                -0.0002         -DE/DX =    0.0                 !
 ! Y1    R(1,-2)                 0.0002         -DE/DX =    0.0                 !
 ! Z1    R(1,-3)                 0.0002         -DE/DX =    0.0                 !
 ! X2    R(2,-1)                 0.0001         -DE/DX =    0.0                 !
 ! Y2    R(2,-2)                 0.0001         -DE/DX =    0.0                 !
 ! Z2    R(2,-3)                 2.4335         -DE/DX =    0.0                 !
 ! X4    R(4,-1)                -0.3276         -DE/DX =    0.0                 !
 ! Y4    R(4,-2)                 0.7512         -DE/DX =    0.0                 !
 ! Z4    R(4,-3)                -0.6082         -DE/DX =    0.0                 !
 ! X5    R(5,-1)                 0.0958         -DE/DX =    0.0                 !
 ! Y5    R(5,-2)                 0.7844         -DE/DX =    0.0                 !
 ! Z5    R(5,-3)                 3.1765         -DE/DX =    0.0                 !
 ! X6    R(6,-1)                 1.3559         -DE/DX =    0.0                 !
 ! Y6    R(6,-2)                 1.7866         -DE/DX =    0.0                 !
 ! Z6    R(6,-3)                 1.1652         -DE/DX =    0.0                 !
 ! X7    R(7,-1)                -1.4028         -DE/DX =    0.0                 !
 ! Y7    R(7,-2)                 1.8581         -DE/DX =    0.0                 !
 ! Z7    R(7,-3)                 1.2148         -DE/DX =    0.0                 !
 ! R1    R(1,3)                  1.7581         -DE/DX =    0.0                 !
 ! R2    R(1,8)                  0.9674         -DE/DX =    0.0                 !
 ! R3    R(2,3)                  1.5813         -DE/DX =    0.0                 !
 ! R4    R(3,6)                  1.5389         -DE/DX =    0.0                 !
 ! R5    R(3,7)                  1.554          -DE/DX =    0.0                 !
 ! A1    A(3,1,4)               88.3402         -DE/DX =    0.0                 !
 ! A2    A(3,1,8)              113.5973         -DE/DX =    0.0                 !
 ! A3    A(4,1,8)              107.5814         -DE/DX =    0.0                 !
 ! A4    A(3,2,5)               87.4096         -DE/DX =    0.0                 !
 ! A5    A(1,3,2)               93.3948         -DE/DX =    0.0                 !
 ! A6    A(1,3,6)               99.8782         -DE/DX =    0.0                 !
 ! A7    A(1,3,7)              104.7205         -DE/DX =    0.0                 !
 ! A8    A(2,3,6)              111.3152         -DE/DX =    0.0                 !
 ! A9    A(2,3,7)              113.8806         -DE/DX =    0.0                 !
 ! A10   A(6,3,7)              126.3442         -DE/DX =    0.0                 !
 ! D1    D(4,1,3,2)            162.4574         -DE/DX =    0.0                 !
 ! D2    D(4,1,3,6)            -85.2122         -DE/DX =    0.0                 !
 ! D3    D(4,1,3,7)             46.679          -DE/DX =    0.0                 !
 ! D4    D(8,1,3,2)             53.9695         -DE/DX =    0.0                 !
 ! D5    D(8,1,3,6)            166.3            -DE/DX =    0.0                 !
 ! D6    D(8,1,3,7)            -61.8088         -DE/DX =    0.0                 !
 ! D7    D(5,2,3,1)            173.8407         -DE/DX =    0.0                 !
 ! D8    D(5,2,3,6)             71.8577         -DE/DX =    0.0                 !
 ! D9    D(5,2,3,7)            -78.4224         -DE/DX =    0.0                 !
 --------------------------------------------------------------------------------
 GradGradGradGradGradGradGradGradGradGradGradGradGradGradGradGradGradGrad

 Leave Link  103 at Tue Aug  9 14:38:01 2022, MaxMem=   104857600 cpu:               0.1 elap:               0.0
 (Enter /share/apps/gaussian/g16/l9999.exe)

 ----------------------------------------------------------------------

 Electric dipole moment (input orientation):
 (Debye = 10**-18 statcoulomb cm , SI units = C m)
                  (au)            (Debye)         (10**-30 SI)
   Tot        0.151957D+01      0.386237D+01      0.128835D+02
   x         -0.732653D+00     -0.186222D+01     -0.621169D+01
   y         -0.318590D+00     -0.809775D+00     -0.270112D+01
   z         -0.129260D+01     -0.328547D+01     -0.109592D+02

 Dipole polarizability, Alpha (input orientation).
 (esu units = cm**3 , SI units = C**2 m**2 J**-1)
 Alpha(0;0):
               (au)            (10**-24 esu)      (10**-40 SI)
   iso        0.224022D+02      0.331967D+01      0.369363D+01
   aniso      0.317719D+01      0.470811D+00      0.523848D+00
   xx         0.209179D+02      0.309971D+01      0.344889D+01
   yx         0.503019D+00      0.745398D-01      0.829367D-01
   yy         0.227472D+02      0.337078D+01      0.375050D+01
   zx         0.931461D+00      0.138028D+00      0.153577D+00
   zy         0.658658D+00      0.976031D-01      0.108598D+00
   zz         0.235417D+02      0.348852D+01      0.388150D+01

 ----------------------------------------------------------------------

 Dipole orientation:
     8         -0.00048826         -0.00025645         -0.00023823
     8         -2.21702528          0.96389777         -3.91182889
    13         -1.38648189         -1.57659653         -2.57546766
     1         -0.06459333         -1.66063045          0.97854482
     1         -2.81673852         -0.17873243         -5.50417568
     9          0.99437374         -2.69438601         -3.81627805
     9         -3.61649125         -3.09136784         -1.41075296
     1         -1.12753085          1.17477807          0.83121185

 Electric dipole moment (dipole orientation):
 (Debye = 10**-18 statcoulomb cm , SI units = C m)
                  (au)            (Debye)         (10**-30 SI)
   Tot        0.151957D+01      0.386237D+01      0.128835D+02
   x          0.000000D+00      0.000000D+00      0.000000D+00
   y          0.000000D+00      0.000000D+00      0.000000D+00
   z          0.151957D+01      0.386237D+01      0.128835D+02

 Dipole polarizability, Alpha (dipole orientation).
 (esu units = cm**3 , SI units = C**2 m**2 J**-1)
 Alpha(0;0):
               (au)            (10**-24 esu)      (10**-40 SI)
   iso        0.224022D+02      0.331967D+01      0.369363D+01
   aniso      0.317719D+01      0.470811D+00      0.523848D+00
   xx         0.207345D+02      0.307254D+01      0.341866D+01
   yx        -0.149862D+00     -0.222073D-01     -0.247090D-01
   yy         0.224747D+02      0.333041D+01      0.370558D+01
   zx         0.639001D+00      0.946902D-01      0.105357D+00
   zy         0.518069D+00      0.767699D-01      0.854181D-01
   zz         0.239975D+02      0.355606D+01      0.395665D+01

 ----------------------------------------------------------------------
 Unable to Open any file for archive entry.
 1\1\GINC-COMPUTE-0-13\Freq\RwB97XD\Gen\Al1F2H3O2\CAKIM2\09-Aug-2022\0\
 \#P Geom=AllCheck Guess=TCheck SCRF=Check GenChk RwB97XD/ChkBas Freq\\
 Al_F_1_r\\0,1\O,-0.0001725517,0.0001730257,0.0002033578\O,0.0000925513
 ,0.000126113,2.4334503438\Al,-0.030000661,1.1402960141,1.3381427803\H,
 -0.3275530994,0.751196847,-0.6082390637\H,0.0958450508,0.7844170865,3.
 1764650028\F,1.3559060977,1.7866003861,1.1652127947\F,-1.4027880486,1.
 8580765416,1.2147675646\H,-0.699833832,-0.6665287178,0.0438553422\\Ver
 sion=ES64L-G16RevC.01\HF=-594.3732239\RMSD=8.767e-10\RMSF=2.784e-05\Ze
 roPoint=0.0177128\Thermal=0.0210658\ETot=-594.3521581\HTot=-594.351208
 1\GTot=-594.3826695\Dipole=-0.7326532,-0.3185898,-1.2926036\DipoleDeri
 v=0.,0.,0.,0.,0.,0.,0.,0.,0.,0.,0.,0.,0.,0.,0.,0.,0.,0.,1.6011006,-0.0
 049721,-0.000966,0.0260175,1.5779851,-0.0103523,0.0417399,0.0505156,1.
 758989,0.,0.,0.,0.,0.,0.,0.,0.,0.,0.,0.,0.,0.,0.,0.,0.,0.,0.,0.,0.,0.,
 0.,0.,0.,0.,0.,0.,0.,0.,0.,0.,0.,0.,0.,0.,0.,0.3142092,0.0109236,-0.02
 87246,0.0141225,0.4330885,0.0413154,-0.0098069,0.0418912,0.3922967\Pol
 ar=20.9178515,0.5030194,22.7471702,0.9314614,0.6586582,23.5416912\Quad
 rupole=-2.1753033,0.2563524,1.9189509,0.8330216,0.9145101,1.2292763\PG
 =C01 [X(Al1F2H3O2)]\NImag=0\\0.,0.,0.,0.,0.,0.,0.,0.,0.,0.,0.,0.,0.,0.
 ,0.,0.,0.,0.,0.,0.,0.,0.,0.,0.,0.,0.,0.,0.83152142,0.,0.,0.,0.,0.,0.,0
 .00243290,0.54897460,0.,0.,0.,0.,0.,0.,-0.00126446,-0.20595705,0.45303
 149,0.,0.,0.,0.,0.,0.,0.,0.,0.,0.,0.,0.,0.,0.,0.,0.,0.,0.,0.,0.,0.,0.,
 0.,0.,0.,0.,0.,0.,0.,0.,0.,0.,0.,0.,0.,0.,0.,0.,0.,0.,0.,0.,0.,0.,0.,0
 .,0.,0.,0.,0.,0.,0.,0.,0.,0.,0.,0.,0.,0.,0.,0.,0.,0.,0.,0.,0.,0.,0.,0.
 ,0.,0.,0.,0.,0.,0.,0.,0.,0.,0.,0.,0.,0.,0.,0.,0.,0.,0.,0.,0.,0.,0.,0.,
 0.,0.,0.,0.,0.,0.,0.,0.,0.,0.,0.,0.,0.,0.,0.,0.,0.,0.,0.,0.,0.,0.,0.,0
 .,0.,0.,0.,0.,0.,0.,0.,0.,0.,0.,0.,0.,0.,0.,0.,0.,0.,0.,0.,0.,0.,0.,0.
 ,0.,0.,0.,0.,0.,0.,0.,0.,0.,0.,0.,0.,0.,0.,0.,0.,0.,0.,0.,0.,0.,0.,0.,
 0.,0.,0.,0.,0.,0.,0.,0.,0.,0.,0.,0.,0.,0.,0.,0.,0.,0.,0.,0.,0.,0.,0.,0
 .,0.,0.,0.,0.,0.,0.,0.00011438,0.00048514,-0.00116596,0.,0.,0.,0.,0.,0
 .,0.,0.,0.,0.,0.,0.,0.28613103,0.,0.,0.,0.,0.,0.,-0.00983490,-0.011479
 30,-0.00718792,0.,0.,0.,0.,0.,0.,0.,0.,0.,0.,0.,0.,0.25507860,0.285631
 10,0.,0.,0.,0.,0.,0.,-0.01140242,-0.01145080,0.00519149,0.,0.,0.,0.,0.
 ,0.,0.,0.,0.,0.,0.,0.,-0.00503868,-0.02565294,0.03172327\\0.,0.,0.,0.,
 0.,0.,-0.00002319,0.00012042,-0.00004041,0.,0.,0.,0.,0.,0.,0.,0.,0.,0.
 ,0.,0.,-0.00003503,0.00002239,-0.00001409\\\@
 The archive entry for this job was punched.


 MATERIAL COPIED FROM ONE SCHOLARLY BOOK WITHOUT CREDIT COMPRISES PLAGIARISM.
 MATERIAL COPIED FROM TWO SCHOLARLY BOOKS COMPRISES AN ESSAY.
 MATERIAL COPIED FROM THREE SCHOLARLY BOOKS COMPRISES A DISSERTATION.
 MATERIAL COPIED FROM FOUR SCHOLARLY BOOKS COMPRISES A FIFTH SCHOLARLY BOOK.

                               -- C&EN, 25 FEB 1980
 Job cpu time:       0 days  0 hours  1 minutes 34.8 seconds.
 Elapsed time:       0 days  0 hours  0 minutes 12.3 seconds.
 File lengths (MBytes):  RWF=     10 Int=      0 D2E=      0 Chk=      2 Scr=      1
 Normal termination of Gaussian 16 at Tue Aug  9 14:38:01 2022.
