 Entering Gaussian System, Link 0=g16
 Input=C2H4.com
 Output=C2H4.log
 Initial command:
 /share/apps/gaussian/g16/l1.exe "/scratch/cakim2/502647/Gau-6630.inp" -scrdir="/scratch/cakim2/502647/"
 Entering Link 1 = /share/apps/gaussian/g16/l1.exe PID=      6631.
  
 Copyright (c) 1988-2019, Gaussian, Inc.  All Rights Reserved.
  
 This is part of the Gaussian(R) 16 program.  It is based on
 the Gaussian(R) 09 system (copyright 2009, Gaussian, Inc.),
 the Gaussian(R) 03 system (copyright 2003, Gaussian, Inc.),
 the Gaussian(R) 98 system (copyright 1998, Gaussian, Inc.),
 the Gaussian(R) 94 system (copyright 1995, Gaussian, Inc.),
 the Gaussian 92(TM) system (copyright 1992, Gaussian, Inc.),
 the Gaussian 90(TM) system (copyright 1990, Gaussian, Inc.),
 the Gaussian 88(TM) system (copyright 1988, Gaussian, Inc.),
 the Gaussian 86(TM) system (copyright 1986, Carnegie Mellon
 University), and the Gaussian 82(TM) system (copyright 1983,
 Carnegie Mellon University). Gaussian is a federally registered
 trademark of Gaussian, Inc.
  
 This software contains proprietary and confidential information,
 including trade secrets, belonging to Gaussian, Inc.
  
 This software is provided under written license and may be
 used, copied, transmitted, or stored only in accord with that
 written license.
  
 The following legend is applicable only to US Government
 contracts under FAR:
  
                    RESTRICTED RIGHTS LEGEND
  
 Use, reproduction and disclosure by the US Government is
 subject to restrictions as set forth in subparagraphs (a)
 and (c) of the Commercial Computer Software - Restricted
 Rights clause in FAR 52.227-19.
  
 Gaussian, Inc.
 340 Quinnipiac St., Bldg. 40, Wallingford CT 06492
  
  
 ---------------------------------------------------------------
 Warning -- This program may not be used in any manner that
 competes with the business of Gaussian, Inc. or will provide
 assistance to any competitor of Gaussian, Inc.  The licensee
 of this program is prohibited from giving any competitor of
 Gaussian, Inc. access to this program.  By using this program,
 the user acknowledges that Gaussian, Inc. is engaged in the
 business of creating and licensing software in the field of
 computational chemistry and represents and warrants to the
 licensee that it is not a competitor of Gaussian, Inc. and that
 it will not use this program in any manner prohibited above.
 ---------------------------------------------------------------
  

 Cite this work as:
 Gaussian 16, Revision C.01,
 M. J. Frisch, G. W. Trucks, H. B. Schlegel, G. E. Scuseria, 
 M. A. Robb, J. R. Cheeseman, G. Scalmani, V. Barone, 
 G. A. Petersson, H. Nakatsuji, X. Li, M. Caricato, A. V. Marenich, 
 J. Bloino, B. G. Janesko, R. Gomperts, B. Mennucci, H. P. Hratchian, 
 J. V. Ortiz, A. F. Izmaylov, J. L. Sonnenberg, D. Williams-Young, 
 F. Ding, F. Lipparini, F. Egidi, J. Goings, B. Peng, A. Petrone, 
 T. Henderson, D. Ranasinghe, V. G. Zakrzewski, J. Gao, N. Rega, 
 G. Zheng, W. Liang, M. Hada, M. Ehara, K. Toyota, R. Fukuda, 
 J. Hasegawa, M. Ishida, T. Nakajima, Y. Honda, O. Kitao, H. Nakai, 
 T. Vreven, K. Throssell, J. A. Montgomery, Jr., J. E. Peralta, 
 F. Ogliaro, M. J. Bearpark, J. J. Heyd, E. N. Brothers, K. N. Kudin, 
 V. N. Staroverov, T. A. Keith, R. Kobayashi, J. Normand, 
 K. Raghavachari, A. P. Rendell, J. C. Burant, S. S. Iyengar, 
 J. Tomasi, M. Cossi, J. M. Millam, M. Klene, C. Adamo, R. Cammi, 
 J. W. Ochterski, R. L. Martin, K. Morokuma, O. Farkas, 
 J. B. Foresman, and D. J. Fox, Gaussian, Inc., Wallingford CT, 2019.
 
 ******************************************
 Gaussian 16:  ES64L-G16RevC.01  3-Jul-2019
                 2-Mar-2023 
 ******************************************
 %NProcShared=24
 Will use up to   24 processors via shared memory.
 ----------------------------------------------------------------------
 #n wB97XD/Gen NoSymm SCF=XQC Opt=(MaxCycles=200) Freq Temp=373.150 Pre
 ssure=1.00000
 ----------------------------------------------------------------------
 1/6=200,18=20,19=15,26=3,38=1,112=373150,113=1000/1,3;
 2/9=110,12=2,15=1,17=6,18=5,40=1/2;
 3/5=7,11=2,25=1,30=1,71=1,74=-58/1,2,3;
 4//1;
 5/5=2,8=3,13=1,38=5/2,8;
 6/7=2,8=2,9=2,10=2,28=1/1;
 7/30=1/1,2,3,16;
 1/6=200,18=20,19=15,26=3/3(2);
 2/9=110,15=1/2;
 99//99;
 2/9=110,15=1/2;
 3/5=7,6=1,11=2,25=1,30=1,71=1,74=-58,82=7/1,2,3;
 4/5=5,16=3,69=1/1;
 5/5=2,8=3,13=1,38=5/2,8;
 7/30=1/1,2,3,16;
 1/6=200,18=20,19=15,26=3/3(-5);
 2/9=110,15=1/2;
 6/7=2,8=2,9=2,10=2,19=2,28=1/1;
 99/9=1/99;
 ----
 C2H4
 ----
 Symbolic Z-matrix:
 Charge =  0 Multiplicity = 1
 C                     0.54667   0.93743   0. 
 C                     1.87765   0.93743   0. 
 H                     0.        0.        0. 
 H                     0.        1.87486   0. 
 H                     2.42432   0.        0. 
 H                     2.42432   1.87486   0. 
 

 GradGradGradGradGradGradGradGradGradGradGradGradGradGradGradGradGradGrad
 Berny optimization.
 Initialization pass.
                           ----------------------------
                           !    Initial Parameters    !
                           ! (Angstroms and Degrees)  !
 --------------------------                            --------------------------
 ! Name  Definition              Value          Derivative Info.                !
 --------------------------------------------------------------------------------
 ! R1    R(1,2)                  1.331          estimate D2E/DX2                !
 ! R2    R(1,3)                  1.0852         estimate D2E/DX2                !
 ! R3    R(1,4)                  1.0852         estimate D2E/DX2                !
 ! R4    R(2,5)                  1.0852         estimate D2E/DX2                !
 ! R5    R(2,6)                  1.0852         estimate D2E/DX2                !
 ! A1    A(2,1,3)              120.249          estimate D2E/DX2                !
 ! A2    A(2,1,4)              120.249          estimate D2E/DX2                !
 ! A3    A(3,1,4)              119.5021         estimate D2E/DX2                !
 ! A4    A(1,2,5)              120.249          estimate D2E/DX2                !
 ! A5    A(1,2,6)              120.249          estimate D2E/DX2                !
 ! A6    A(5,2,6)              119.5021         estimate D2E/DX2                !
 ! D1    D(3,1,2,5)              0.0            estimate D2E/DX2                !
 ! D2    D(3,1,2,6)            180.0            estimate D2E/DX2                !
 ! D3    D(4,1,2,5)            180.0            estimate D2E/DX2                !
 ! D4    D(4,1,2,6)              0.0            estimate D2E/DX2                !
 --------------------------------------------------------------------------------
 Trust Radius=3.00D-01 FncErr=1.00D-07 GrdErr=1.00D-06 EigMax=2.50D+02 EigMin=1.00D-04
 Number of steps in this run=    100 maximum allowed number of steps=    100.
 GradGradGradGradGradGradGradGradGradGradGradGradGradGradGradGradGradGrad

                          Input orientation:                          
 ---------------------------------------------------------------------
 Center     Atomic      Atomic             Coordinates (Angstroms)
 Number     Number       Type             X           Y           Z
 ---------------------------------------------------------------------
      1          6           0        0.546670    0.937430    0.000000
      2          6           0        1.877650    0.937430    0.000000
      3          1           0        0.000000    0.000000    0.000000
      4          1           0        0.000000    1.874860    0.000000
      5          1           0        2.424320    0.000000    0.000000
      6          1           0        2.424320    1.874860    0.000000
 ---------------------------------------------------------------------
                    Distance matrix (angstroms):
                    1          2          3          4          5
     1  C    0.000000
     2  C    1.330980   0.000000
     3  H    1.085183   2.098653   0.000000
     4  H    1.085183   2.098653   1.874860   0.000000
     5  H    2.098653   1.085183   2.424320   3.064707   0.000000
     6  H    2.098653   1.085183   3.064707   2.424320   1.874860
                    6
     6  H    0.000000
 Symmetry turned off by external request.
 Stoichiometry    C2H4
 Framework group  D2H[C2"(C.C),SG(H4)]
 Deg. of freedom     3
 Full point group                 D2H     NOp   8
 Rotational constants (GHZ):         142.6574213          30.5321342          25.1495278
 General basis read from cards:  (5D, 7F)
    62 basis functions,   102 primitive gaussians,    64 cartesian basis functions
     8 alpha electrons        8 beta electrons
       nuclear repulsion energy        33.4143834430 Hartrees.
 NAtoms=    6 NActive=    6 NUniq=    6 SFac= 1.00D+00 NAtFMM=   60 NAOKFM=F Big=F
 Integral buffers will be    131072 words long.
 Raffenetti 2 integral format.
 Two-electron integral symmetry is turned off.
 Nuclear repulsion after empirical dispersion term =       33.4135319108 Hartrees.
 One-electron integrals computed using PRISM.
 NBasis=    62 RedAO= T EigKep=  8.66D-04  NBF=    62
 NBsUse=    62 1.00D-06 EigRej= -1.00D+00 NBFU=    62
 ExpMin= 9.52D-02 ExpMax= 1.36D+04 ExpMxC= 4.63D+02 IAcc=3 IRadAn=         5 AccDes= 0.00D+00
 Harris functional with IExCor= 4639 and IRadAn=       5 diagonalized for initial guess.
 HarFok:  IExCor= 4639 AccDes= 0.00D+00 IRadAn=         5 IDoV= 1 UseB2=F ITyADJ=14
 ICtDFT=  3500011 ScaDFX=  1.000000  1.000000  1.000000  1.000000
 FoFCou: FMM=F IPFlag=           0 FMFlag=      100000 FMFlg1=           0
         NFxFlg=           0 DoJE=T BraDBF=F KetDBF=T FulRan=T
         wScrn=  0.000000 ICntrl=       500 IOpCl=  0 I1Cent=   200000004 NGrid=           0
         NMat0=    1 NMatS0=      1 NMatT0=    0 NMatD0=    1 NMtDS0=    0 NMtDT0=    0
 Symmetry not used in FoFCou.
 Keep R1 ints in memory in canonical form, NReq=25284706.
 Requested convergence on RMS density matrix=1.00D-08 within  32 cycles.
 Requested convergence on MAX density matrix=1.00D-06.
 Requested convergence on             energy=1.00D-06.
 No special actions if energy rises.
 Integral accuracy reduced to 1.0D-05 until final iterations.
 Initial convergence to 1.0D-05 achieved.  Increase integral accuracy.
 SCF Done:  E(RwB97XD) =  -78.5864918669     A.U. after   11 cycles
            NFock= 11  Conv=0.27D-08     -V/T= 2.0058
 QCSCF skips out because SCF is already converged.

 **********************************************************************

            Population analysis using the SCF Density.

 **********************************************************************

 Alpha  occ. eigenvalues --  -10.28484 -10.28392  -0.86359  -0.67151  -0.56461
 Alpha  occ. eigenvalues --   -0.50242  -0.44249  -0.35850
 Alpha virt. eigenvalues --    0.07196   0.14421   0.17009   0.17621   0.23023
 Alpha virt. eigenvalues --    0.27265   0.28996   0.29710   0.29908   0.35694
 Alpha virt. eigenvalues --    0.39670   0.42781   0.50231   0.54359   0.54835
 Alpha virt. eigenvalues --    0.57049   0.66115   0.73352   1.25048   1.28716
 Alpha virt. eigenvalues --    1.31593   1.35620   1.35918   1.37868   1.41624
 Alpha virt. eigenvalues --    1.51913   1.52100   1.53006   1.58582   1.77837
 Alpha virt. eigenvalues --    1.82082   1.83338   1.83761   1.91688   1.92750
 Alpha virt. eigenvalues --    2.02469   2.11836   2.16656   2.27609   2.28037
 Alpha virt. eigenvalues --    2.41476   2.48432   2.57893   2.66011   2.71177
 Alpha virt. eigenvalues --    2.74589   2.84787   3.08220   3.13691   3.24996
 Alpha virt. eigenvalues --    3.36761   3.60612  21.69404  22.21324
          Condensed to atoms (all electrons):
               1          2          3          4          5          6
     1  C    4.884614   0.616335   0.414120   0.414120  -0.040056  -0.040056
     2  C    0.616335   4.884614  -0.040056  -0.040056   0.414120   0.414120
     3  H    0.414120  -0.040056   0.529075  -0.025553  -0.007326   0.005201
     4  H    0.414120  -0.040056  -0.025553   0.529075   0.005201  -0.007326
     5  H   -0.040056   0.414120  -0.007326   0.005201   0.529075  -0.025553
     6  H   -0.040056   0.414120   0.005201  -0.007326  -0.025553   0.529075
 Mulliken charges:
               1
     1  C   -0.249078
     2  C   -0.249078
     3  H    0.124539
     4  H    0.124539
     5  H    0.124539
     6  H    0.124539
 Sum of Mulliken charges =  -0.00000
 Mulliken charges with hydrogens summed into heavy atoms:
               1
     1  C    0.000000
     2  C   -0.000000
 Electronic spatial extent (au):  <R**2>=            216.5284
 Charge=             -0.0000 electrons
 Dipole moment (field-independent basis, Debye):
    X=              0.0000    Y=             -0.0000    Z=             -0.0000  Tot=              0.0000
 Quadrupole moment (field-independent basis, Debye-Ang):
   XX=            -12.4101   YY=            -12.0435   ZZ=            -15.6891
   XY=              0.0000   XZ=              0.0000   YZ=             -0.0000
 Traceless Quadrupole moment (field-independent basis, Debye-Ang):
   XX=              0.9708   YY=              1.3374   ZZ=             -2.3082
   XY=              0.0000   XZ=              0.0000   YZ=             -0.0000
 Octapole moment (field-independent basis, Debye-Ang**2):
  XXX=            -45.1289  YYY=            -33.8698  ZZZ=             -0.0000  XYY=            -14.5986
  XXY=            -11.6336  XXZ=              0.0000  XZZ=            -19.0177  YZZ=            -14.7074
  YYZ=             -0.0000  XYZ=              0.0000
 Hexadecapole moment (field-independent basis, Debye-Ang**3):
 XXXX=           -177.8247 YYYY=            -90.2935 ZZZZ=            -19.1571 XXXY=            -42.3052
 XXXZ=              0.0000 YYYX=            -41.0556 YYYZ=              0.0000 ZZZX=              0.0000
 ZZZY=             -0.0000 XXYY=            -41.6125 XXZZ=            -38.5658 YYZZ=            -22.2231
 XXYZ=              0.0000 YYXZ=              0.0000 ZZXY=            -17.8278
 N-N= 3.341353191082D+01 E-N=-2.485745339254D+02  KE= 7.813512045049D+01
 Calling FoFJK, ICntrl=      2127 FMM=F ISym2X=0 I1Cent= 0 IOpClX= 0 NMat=1 NMatS=1 NMatT=0.
 -------------------------------------------------------------------
 Center     Atomic                   Forces (Hartrees/Bohr)
 Number     Number              X              Y              Z
 -------------------------------------------------------------------
      1        6           0.012312082   -0.000000000   -0.000000000
      2        6          -0.012312082    0.000000000    0.000000000
      3        1          -0.002690882    0.002994913    0.000000000
      4        1          -0.002690882   -0.002994913   -0.000000000
      5        1           0.002690882    0.002994913   -0.000000000
      6        1           0.002690882   -0.002994913    0.000000000
 -------------------------------------------------------------------
 Cartesian Forces:  Max     0.012312082 RMS     0.004521652

 GradGradGradGradGradGradGradGradGradGradGradGradGradGradGradGradGradGrad
 Berny optimization.
 FormGI is forming the generalized inverse of G from B-inverse, IUseBI=4.
 Internal  Forces:  Max     0.006930319 RMS     0.003016461
 Search for a local minimum.
 Step number   1 out of a maximum of  100
 All quantities printed in internal units (Hartrees-Bohrs-Radians)
 Mixed Optimization -- RFO/linear search
 Second derivative matrix not updated -- first step.
 The second derivative matrix:
                          R1        R2        R3        R4        R5
           R1           0.59275
           R2           0.00000   0.35375
           R3           0.00000   0.00000   0.35375
           R4           0.00000   0.00000   0.00000   0.35375
           R5           0.00000   0.00000   0.00000   0.00000   0.35375
           A1           0.00000   0.00000   0.00000   0.00000   0.00000
           A2           0.00000   0.00000   0.00000   0.00000   0.00000
           A3           0.00000   0.00000   0.00000   0.00000   0.00000
           A4           0.00000   0.00000   0.00000   0.00000   0.00000
           A5           0.00000   0.00000   0.00000   0.00000   0.00000
           A6           0.00000   0.00000   0.00000   0.00000   0.00000
           D1           0.00000   0.00000   0.00000   0.00000   0.00000
           D2           0.00000   0.00000   0.00000   0.00000   0.00000
           D3           0.00000   0.00000   0.00000   0.00000   0.00000
           D4           0.00000   0.00000   0.00000   0.00000   0.00000
                          A1        A2        A3        A4        A5
           A1           0.16000
           A2           0.00000   0.16000
           A3           0.00000   0.00000   0.16000
           A4           0.00000   0.00000   0.00000   0.16000
           A5           0.00000   0.00000   0.00000   0.00000   0.16000
           A6           0.00000   0.00000   0.00000   0.00000   0.00000
           D1           0.00000   0.00000   0.00000   0.00000   0.00000
           D2           0.00000   0.00000   0.00000   0.00000   0.00000
           D3           0.00000   0.00000   0.00000   0.00000   0.00000
           D4           0.00000   0.00000   0.00000   0.00000   0.00000
                          A6        D1        D2        D3        D4
           A6           0.16000
           D1           0.00000   0.03002
           D2           0.00000   0.00000   0.03002
           D3           0.00000   0.00000   0.00000   0.03002
           D4           0.00000   0.00000   0.00000   0.00000   0.03002
 ITU=  0
     Eigenvalues ---    0.03002   0.03002   0.03002   0.16000   0.16000
     Eigenvalues ---    0.16000   0.16000   0.35375   0.35375   0.35375
     Eigenvalues ---    0.35375   0.59275
 RFO step:  Lambda=-6.11031541D-04 EMin= 3.00175809D-02
 Linear search not attempted -- first point.
 Iteration  1 RMS(Cart)=  0.01518400 RMS(Int)=  0.00014284
 Iteration  2 RMS(Cart)=  0.00014413 RMS(Int)=  0.00000000
 Iteration  3 RMS(Cart)=  0.00000000 RMS(Int)=  0.00000000
 Variable       Old X    -DE/DX   Delta X   Delta X   Delta X     New X
                                 (Linear)    (Quad)   (Total)
    R1        2.51519  -0.00693   0.00000  -0.01168  -0.01168   2.50351
    R2        2.05070  -0.00123   0.00000  -0.00348  -0.00348   2.04722
    R3        2.05070  -0.00123   0.00000  -0.00348  -0.00348   2.04722
    R4        2.05070  -0.00123   0.00000  -0.00348  -0.00348   2.04722
    R5        2.05070  -0.00123   0.00000  -0.00348  -0.00348   2.04722
    A1        2.09874   0.00262   0.00000   0.01631   0.01631   2.11505
    A2        2.09874   0.00262   0.00000   0.01631   0.01631   2.11505
    A3        2.08571  -0.00524   0.00000  -0.03263  -0.03263   2.05308
    A4        2.09874   0.00262   0.00000   0.01631   0.01631   2.11505
    A5        2.09874   0.00262   0.00000   0.01631   0.01631   2.11505
    A6        2.08571  -0.00524   0.00000  -0.03263  -0.03263   2.05308
    D1        0.00000   0.00000   0.00000   0.00000   0.00000   0.00000
    D2        3.14159   0.00000   0.00000   0.00000   0.00000   3.14159
    D3        3.14159   0.00000   0.00000   0.00000   0.00000   3.14159
    D4        0.00000  -0.00000   0.00000  -0.00000  -0.00000   0.00000
         Item               Value     Threshold  Converged?
 Maximum Force            0.006930     0.000450     NO 
 RMS     Force            0.003016     0.000300     NO 
 Maximum Displacement     0.021122     0.001800     NO 
 RMS     Displacement     0.015194     0.001200     NO 
 Predicted change in Energy=-3.065515D-04
 GradGradGradGradGradGradGradGradGradGradGradGradGradGradGradGradGradGrad

                          Input orientation:                          
 ---------------------------------------------------------------------
 Center     Atomic      Atomic             Coordinates (Angstroms)
 Number     Number       Type             X           Y           Z
 ---------------------------------------------------------------------
      1          6           0        0.549760    0.937430   -0.000000
      2          6           0        1.874560    0.937430    0.000000
      3          1           0       -0.011177    0.010616    0.000000
      4          1           0       -0.011177    1.864244   -0.000000
      5          1           0        2.435497    0.010616   -0.000000
      6          1           0        2.435497    1.864244    0.000000
 ---------------------------------------------------------------------
                    Distance matrix (angstroms):
                    1          2          3          4          5
     1  C    0.000000
     2  C    1.324799   0.000000
     3  H    1.083344   2.101187   0.000000
     4  H    1.083344   2.101187   1.853627   0.000000
     5  H    2.101187   1.083344   2.446675   3.069553   0.000000
     6  H    2.101187   1.083344   3.069553   2.446675   1.853627
                    6
     6  H    0.000000
 Symmetry turned off by external request.
 Stoichiometry    C2H4
 Framework group  D2H[C2"(C.C),SG(H4)]
 Deg. of freedom     3
 Full point group                 D2H     NOp   8
 Rotational constants (GHZ):         145.9443157          30.5113865          25.2355881
 Basis read from rwf:  (5D, 7F)
    62 basis functions,   102 primitive gaussians,    64 cartesian basis functions
     8 alpha electrons        8 beta electrons
       nuclear repulsion energy        33.4956606615 Hartrees.
 NAtoms=    6 NActive=    6 NUniq=    6 SFac= 1.00D+00 NAtFMM=   60 NAOKFM=F Big=F
 Integral buffers will be    131072 words long.
 Raffenetti 2 integral format.
 Two-electron integral symmetry is turned off.
 Nuclear repulsion after empirical dispersion term =       33.4948236413 Hartrees.
 One-electron integrals computed using PRISM.
 NBasis=    62 RedAO= T EigKep=  8.61D-04  NBF=    62
 NBsUse=    62 1.00D-06 EigRej= -1.00D+00 NBFU=    62
 Initial guess from the checkpoint file:  "/scratch/cakim2/502647/Gau-6631.chk"
 B after Tr=     0.000000   -0.000000   -0.000000
         Rot=    1.000000    0.000000    0.000000   -0.000000 Ang=   0.00 deg.
 ExpMin= 9.52D-02 ExpMax= 1.36D+04 ExpMxC= 4.63D+02 IAcc=3 IRadAn=         5 AccDes= 0.00D+00
 Harris functional with IExCor= 4639 and IRadAn=       5 diagonalized for initial guess.
 HarFok:  IExCor= 4639 AccDes= 0.00D+00 IRadAn=         5 IDoV= 1 UseB2=F ITyADJ=14
 ICtDFT=  3500011 ScaDFX=  1.000000  1.000000  1.000000  1.000000
 FoFCou: FMM=F IPFlag=           0 FMFlag=      100000 FMFlg1=           0
         NFxFlg=           0 DoJE=T BraDBF=F KetDBF=T FulRan=T
         wScrn=  0.000000 ICntrl=       500 IOpCl=  0 I1Cent=   200000004 NGrid=           0
         NMat0=    1 NMatS0=      1 NMatT0=    0 NMatD0=    1 NMtDS0=    0 NMtDT0=    0
 Symmetry not used in FoFCou.
 Keep R1 ints in memory in canonical form, NReq=25284706.
 Requested convergence on RMS density matrix=1.00D-08 within  32 cycles.
 Requested convergence on MAX density matrix=1.00D-06.
 Requested convergence on             energy=1.00D-06.
 No special actions if energy rises.
 Integral accuracy reduced to 1.0D-05 until final iterations.
 Initial convergence to 1.0D-05 achieved.  Increase integral accuracy.
 SCF Done:  E(RwB97XD) =  -78.5868932346     A.U. after    9 cycles
            NFock=  9  Conv=0.35D-08     -V/T= 2.0054
 QCSCF skips out because SCF is already converged.
 Calling FoFJK, ICntrl=      2127 FMM=F ISym2X=0 I1Cent= 0 IOpClX= 0 NMat=1 NMatS=1 NMatT=0.
 -------------------------------------------------------------------
 Center     Atomic                   Forces (Hartrees/Bohr)
 Number     Number              X              Y              Z
 -------------------------------------------------------------------
      1        6           0.004198647   -0.000000000   -0.000000000
      2        6          -0.004198647    0.000000000    0.000000000
      3        1          -0.001301104    0.000396994    0.000000000
      4        1          -0.001301104   -0.000396994   -0.000000000
      5        1           0.001301104    0.000396994    0.000000000
      6        1           0.001301104   -0.000396994    0.000000000
 -------------------------------------------------------------------
 Cartesian Forces:  Max     0.004198647 RMS     0.001539466

 GradGradGradGradGradGradGradGradGradGradGradGradGradGradGradGradGradGrad
 Berny optimization.
 Using GEDIIS/GDIIS optimizer.
 FormGI is forming the generalized inverse of G from B-inverse, IUseBI=4.
 Internal  Forces:  Max     0.001799738 RMS     0.000920585
 Search for a local minimum.
 Step number   2 out of a maximum of  100
 All quantities printed in internal units (Hartrees-Bohrs-Radians)
 Mixed Optimization -- En-DIIS/RFO-DIIS
 Update second derivatives using D2CorX and points    1    2
 DE= -4.01D-04 DEPred=-3.07D-04 R= 1.31D+00
 TightC=F SS=  1.41D+00  RLast= 5.81D-02 DXNew= 5.0454D-01 1.7438D-01
 Trust test= 1.31D+00 RLast= 5.81D-02 DXMaxT set to 3.00D-01
 The second derivative matrix:
                          R1        R2        R3        R4        R5
           R1           0.58164
           R2           0.00586   0.35709
           R3           0.00586   0.00334   0.35709
           R4           0.00586   0.00334   0.00334   0.35709
           R5           0.00586   0.00334   0.00334   0.00334   0.35709
           A1           0.00787  -0.00113  -0.00113  -0.00113  -0.00113
           A2           0.00787  -0.00113  -0.00113  -0.00113  -0.00113
           A3          -0.01574   0.00226   0.00226   0.00226   0.00226
           A4           0.00787  -0.00113  -0.00113  -0.00113  -0.00113
           A5           0.00787  -0.00113  -0.00113  -0.00113  -0.00113
           A6          -0.01574   0.00226   0.00226   0.00226   0.00226
           D1           0.00000   0.00000   0.00000   0.00000   0.00000
           D2           0.00000   0.00000   0.00000   0.00000   0.00000
           D3           0.00000   0.00000   0.00000   0.00000   0.00000
           D4          -0.00000  -0.00000  -0.00000  -0.00000  -0.00000
                          A1        A2        A3        A4        A5
           A1           0.15584
           A2          -0.00416   0.15584
           A3           0.00831   0.00831   0.14338
           A4          -0.00416  -0.00416   0.00831   0.15584
           A5          -0.00416  -0.00416   0.00831  -0.00416   0.15584
           A6           0.00831   0.00831  -0.01662   0.00831   0.00831
           D1          -0.00000  -0.00000   0.00000  -0.00000  -0.00000
           D2          -0.00000  -0.00000   0.00000  -0.00000  -0.00000
           D3          -0.00000  -0.00000   0.00000  -0.00000  -0.00000
           D4           0.00000   0.00000  -0.00000   0.00000   0.00000
                          A6        D1        D2        D3        D4
           A6           0.14338
           D1           0.00000   0.03002
           D2           0.00000   0.00000   0.03002
           D3           0.00000   0.00000   0.00000   0.03002
           D4          -0.00000  -0.00000  -0.00000  -0.00000   0.03002
 ITU=  1  0
 Use linear search instead of GDIIS.
     Eigenvalues ---    0.03002   0.03002   0.03002   0.10827   0.16000
     Eigenvalues ---    0.16000   0.16000   0.35375   0.35375   0.35375
     Eigenvalues ---    0.36681   0.58380
 RFO step:  Lambda=-1.42081458D-05 EMin= 3.00175809D-02
 Quartic linear search produced a step of  0.44484.
 Iteration  1 RMS(Cart)=  0.00799242 RMS(Int)=  0.00003752
 Iteration  2 RMS(Cart)=  0.00003764 RMS(Int)=  0.00000000
 Iteration  3 RMS(Cart)=  0.00000000 RMS(Int)=  0.00000000
 Variable       Old X    -DE/DX   Delta X   Delta X   Delta X     New X
                                 (Linear)    (Quad)   (Total)
    R1        2.50351  -0.00160  -0.00520   0.00105  -0.00414   2.49937
    R2        2.04722   0.00033  -0.00155   0.00284   0.00129   2.04852
    R3        2.04722   0.00033  -0.00155   0.00284   0.00129   2.04852
    R4        2.04722   0.00033  -0.00155   0.00284   0.00129   2.04852
    R5        2.04722   0.00033  -0.00155   0.00284   0.00129   2.04852
    A1        2.11505   0.00090   0.00726   0.00113   0.00839   2.12345
    A2        2.11505   0.00090   0.00726   0.00113   0.00839   2.12345
    A3        2.05308  -0.00180  -0.01451  -0.00227  -0.01678   2.03629
    A4        2.11505   0.00090   0.00726   0.00113   0.00839   2.12345
    A5        2.11505   0.00090   0.00726   0.00113   0.00839   2.12345
    A6        2.05308  -0.00180  -0.01451  -0.00227  -0.01678   2.03629
    D1        0.00000   0.00000   0.00000   0.00000   0.00000   0.00000
    D2        3.14159   0.00000   0.00000   0.00000   0.00000   3.14159
    D3        3.14159   0.00000   0.00000   0.00000   0.00000   3.14159
    D4       -0.00000  -0.00000   0.00000  -0.00000   0.00000   0.00000
         Item               Value     Threshold  Converged?
 Maximum Force            0.001800     0.000450     NO 
 RMS     Force            0.000921     0.000300     NO 
 Maximum Displacement     0.013267     0.001800     NO 
 RMS     Displacement     0.007997     0.001200     NO 
 Predicted change in Energy=-5.020716D-05
 GradGradGradGradGradGradGradGradGradGradGradGradGradGradGradGradGradGrad

                          Input orientation:                          
 ---------------------------------------------------------------------
 Center     Atomic      Atomic             Coordinates (Angstroms)
 Number     Number       Type             X           Y           Z
 ---------------------------------------------------------------------
      1          6           0        0.550856    0.937430   -0.000000
      2          6           0        1.873464    0.937430    0.000000
      3          1           0       -0.018198    0.014773    0.000000
      4          1           0       -0.018198    1.860087   -0.000000
      5          1           0        2.442518    0.014773   -0.000000
      6          1           0        2.442518    1.860087    0.000000
 ---------------------------------------------------------------------
                    Distance matrix (angstroms):
                    1          2          3          4          5
     1  C    0.000000
     2  C    1.322607   0.000000
     3  H    1.084029   2.104681   0.000000
     4  H    1.084029   2.104681   1.845315   0.000000
     5  H    2.104681   1.084029   2.460716   3.075761   0.000000
     6  H    2.104681   1.084029   3.075761   2.460716   1.845315
                    6
     6  H    0.000000
 Symmetry turned off by external request.
 Stoichiometry    C2H4
 Framework group  D2H[C2"(C.C),SG(H4)]
 Deg. of freedom     3
 Full point group                 D2H     NOp   8
 Rotational constants (GHZ):         147.2621926          30.4477352          25.2310060
 Basis read from rwf:  (5D, 7F)
    62 basis functions,   102 primitive gaussians,    64 cartesian basis functions
     8 alpha electrons        8 beta electrons
       nuclear repulsion energy        33.5014613751 Hartrees.
 NAtoms=    6 NActive=    6 NUniq=    6 SFac= 1.00D+00 NAtFMM=   60 NAOKFM=F Big=F
 Integral buffers will be    131072 words long.
 Raffenetti 2 integral format.
 Two-electron integral symmetry is turned off.
 Nuclear repulsion after empirical dispersion term =       33.5006309085 Hartrees.
 One-electron integrals computed using PRISM.
 NBasis=    62 RedAO= T EigKep=  8.62D-04  NBF=    62
 NBsUse=    62 1.00D-06 EigRej= -1.00D+00 NBFU=    62
 Initial guess from the checkpoint file:  "/scratch/cakim2/502647/Gau-6631.chk"
 B after Tr=     0.000000   -0.000000   -0.000000
         Rot=    1.000000    0.000000    0.000000   -0.000000 Ang=   0.00 deg.
 Keep R1 ints in memory in canonical form, NReq=25284706.
 Requested convergence on RMS density matrix=1.00D-08 within  32 cycles.
 Requested convergence on MAX density matrix=1.00D-06.
 Requested convergence on             energy=1.00D-06.
 No special actions if energy rises.
 SCF Done:  E(RwB97XD) =  -78.5869429055     A.U. after    7 cycles
            NFock=  7  Conv=0.68D-08     -V/T= 2.0054
 QCSCF skips out because SCF is already converged.
 Calling FoFJK, ICntrl=      2127 FMM=F ISym2X=0 I1Cent= 0 IOpClX= 0 NMat=1 NMatS=1 NMatT=0.
 -------------------------------------------------------------------
 Center     Atomic                   Forces (Hartrees/Bohr)
 Number     Number              X              Y              Z
 -------------------------------------------------------------------
      1        6           0.000066353    0.000000000    0.000000000
      2        6          -0.000066353   -0.000000000   -0.000000000
      3        1          -0.000009254   -0.000015187   -0.000000000
      4        1          -0.000009254    0.000015187   -0.000000000
      5        1           0.000009254   -0.000015187    0.000000000
      6        1           0.000009254    0.000015187    0.000000000
 -------------------------------------------------------------------
 Cartesian Forces:  Max     0.000066353 RMS     0.000023653

 GradGradGradGradGradGradGradGradGradGradGradGradGradGradGradGradGradGrad
 Berny optimization.
 Using GEDIIS/GDIIS optimizer.
 FormGI is forming the generalized inverse of G from B-inverse, IUseBI=4.
 Internal  Forces:  Max     0.000047846 RMS     0.000015393
 Search for a local minimum.
 Step number   3 out of a maximum of  100
 All quantities printed in internal units (Hartrees-Bohrs-Radians)
 Mixed Optimization -- En-DIIS/RFO-DIIS
 Swapping is turned off.
 Update second derivatives using D2CorX and points    1    2    3
 DE= -4.97D-05 DEPred=-5.02D-05 R= 9.89D-01
 TightC=F SS=  1.41D+00  RLast= 2.95D-02 DXNew= 5.0454D-01 8.8423D-02
 Trust test= 9.89D-01 RLast= 2.95D-02 DXMaxT set to 3.00D-01
 The second derivative matrix:
                          R1        R2        R3        R4        R5
           R1           0.57982
           R2           0.00628   0.35704
           R3           0.00628   0.00329   0.35704
           R4           0.00628   0.00329   0.00329   0.35704
           R5           0.00628   0.00329   0.00329   0.00329   0.35704
           A1           0.00815  -0.00132  -0.00132  -0.00132  -0.00132
           A2           0.00815  -0.00132  -0.00132  -0.00132  -0.00132
           A3          -0.01630   0.00263   0.00263   0.00263   0.00263
           A4           0.00815  -0.00132  -0.00132  -0.00132  -0.00132
           A5           0.00815  -0.00132  -0.00132  -0.00132  -0.00132
           A6          -0.01630   0.00263   0.00263   0.00263   0.00263
           D1          -0.00000   0.00000   0.00000   0.00000   0.00000
           D2          -0.00000   0.00000   0.00000   0.00000   0.00000
           D3          -0.00000   0.00000   0.00000   0.00000   0.00000
           D4           0.00000  -0.00000  -0.00000  -0.00000  -0.00000
                          A1        A2        A3        A4        A5
           A1           0.15601
           A2          -0.00399   0.15601
           A3           0.00799   0.00799   0.14403
           A4          -0.00399  -0.00399   0.00799   0.15601
           A5          -0.00399  -0.00399   0.00799  -0.00399   0.15601
           A6           0.00799   0.00799  -0.01597   0.00799   0.00799
           D1           0.00000   0.00000  -0.00000   0.00000   0.00000
           D2           0.00000   0.00000  -0.00000   0.00000   0.00000
           D3           0.00000   0.00000  -0.00000   0.00000   0.00000
           D4          -0.00000  -0.00000   0.00000  -0.00000  -0.00000
                          A6        D1        D2        D3        D4
           A6           0.14403
           D1          -0.00000   0.03002
           D2          -0.00000   0.00000   0.03002
           D3          -0.00000   0.00000   0.00000   0.03002
           D4           0.00000  -0.00000  -0.00000  -0.00000   0.03002
 ITU=  1  1  0
     Eigenvalues ---    0.03002   0.03002   0.03002   0.11001   0.16000
     Eigenvalues ---    0.16000   0.16000   0.35375   0.35375   0.35375
     Eigenvalues ---    0.36662   0.58219
 En-DIIS/RFO-DIIS/Sim-DIIS IScMMF=       -3 using points:     3    2
 RFO step:  Lambda=-7.34214033D-09.
 DidBck=F Rises=F RFO-DIIS coefs:    1.00164   -0.00164
 Iteration  1 RMS(Cart)=  0.00002366 RMS(Int)=  0.00000000
 Iteration  2 RMS(Cart)=  0.00000000 RMS(Int)=  0.00000000
 Variable       Old X    -DE/DX   Delta X   Delta X   Delta X     New X
                                 (Linear)    (Quad)   (Total)
    R1        2.49937  -0.00005  -0.00001  -0.00008  -0.00009   2.49928
    R2        2.04852   0.00002   0.00000   0.00005   0.00005   2.04857
    R3        2.04852   0.00002   0.00000   0.00005   0.00005   2.04857
    R4        2.04852   0.00002   0.00000   0.00005   0.00005   2.04857
    R5        2.04852   0.00002   0.00000   0.00005   0.00005   2.04857
    A1        2.12345  -0.00000   0.00001  -0.00001   0.00001   2.12345
    A2        2.12345  -0.00000   0.00001  -0.00001   0.00001   2.12345
    A3        2.03629   0.00000  -0.00003   0.00001  -0.00002   2.03628
    A4        2.12345  -0.00000   0.00001  -0.00001   0.00001   2.12345
    A5        2.12345  -0.00000   0.00001  -0.00001   0.00001   2.12345
    A6        2.03629   0.00000  -0.00003   0.00001  -0.00002   2.03628
    D1        0.00000  -0.00000   0.00000  -0.00000  -0.00000   0.00000
    D2        3.14159  -0.00000   0.00000  -0.00000   0.00000   3.14159
    D3        3.14159  -0.00000   0.00000  -0.00000   0.00000   3.14159
    D4       -0.00000   0.00000   0.00000   0.00000   0.00000   0.00000
         Item               Value     Threshold  Converged?
 Maximum Force            0.000048     0.000450     YES
 RMS     Force            0.000015     0.000300     YES
 Maximum Displacement     0.000043     0.001800     YES
 RMS     Displacement     0.000024     0.001200     YES
 Predicted change in Energy=-3.844171D-09
 Optimization completed.
    -- Stationary point found.
                           ----------------------------
                           !   Optimized Parameters   !
                           ! (Angstroms and Degrees)  !
 --------------------------                            --------------------------
 ! Name  Definition              Value          Derivative Info.                !
 --------------------------------------------------------------------------------
 ! R1    R(1,2)                  1.3226         -DE/DX =    0.0                 !
 ! R2    R(1,3)                  1.084          -DE/DX =    0.0                 !
 ! R3    R(1,4)                  1.084          -DE/DX =    0.0                 !
 ! R4    R(2,5)                  1.084          -DE/DX =    0.0                 !
 ! R5    R(2,6)                  1.084          -DE/DX =    0.0                 !
 ! A1    A(2,1,3)              121.6645         -DE/DX =    0.0                 !
 ! A2    A(2,1,4)              121.6645         -DE/DX =    0.0                 !
 ! A3    A(3,1,4)              116.6711         -DE/DX =    0.0                 !
 ! A4    A(1,2,5)              121.6645         -DE/DX =    0.0                 !
 ! A5    A(1,2,6)              121.6645         -DE/DX =    0.0                 !
 ! A6    A(5,2,6)              116.6711         -DE/DX =    0.0                 !
 ! D1    D(3,1,2,5)              0.0            -DE/DX =    0.0                 !
 ! D2    D(3,1,2,6)            180.0            -DE/DX =    0.0                 !
 ! D3    D(4,1,2,5)            180.0            -DE/DX =    0.0                 !
 ! D4    D(4,1,2,6)              0.0            -DE/DX =    0.0                 !
 --------------------------------------------------------------------------------
 GradGradGradGradGradGradGradGradGradGradGradGradGradGradGradGradGradGrad

                          Input orientation:                          
 ---------------------------------------------------------------------
 Center     Atomic      Atomic             Coordinates (Angstroms)
 Number     Number       Type             X           Y           Z
 ---------------------------------------------------------------------
      1          6           0        0.550856    0.937430   -0.000000
      2          6           0        1.873464    0.937430    0.000000
      3          1           0       -0.018198    0.014773    0.000000
      4          1           0       -0.018198    1.860087   -0.000000
      5          1           0        2.442518    0.014773   -0.000000
      6          1           0        2.442518    1.860087    0.000000
 ---------------------------------------------------------------------
                    Distance matrix (angstroms):
                    1          2          3          4          5
     1  C    0.000000
     2  C    1.322607   0.000000
     3  H    1.084029   2.104681   0.000000
     4  H    1.084029   2.104681   1.845315   0.000000
     5  H    2.104681   1.084029   2.460716   3.075761   0.000000
     6  H    2.104681   1.084029   3.075761   2.460716   1.845315
                    6
     6  H    0.000000
 Symmetry turned off by external request.
 Stoichiometry    C2H4
 Framework group  D2H[C2"(C.C),SG(H4)]
 Deg. of freedom     3
 Full point group                 D2H     NOp   8
 Rotational constants (GHZ):         147.2621926          30.4477352          25.2310060

 **********************************************************************

            Population analysis using the SCF Density.

 **********************************************************************

 Alpha  occ. eigenvalues --  -10.28400 -10.28301  -0.86457  -0.67427  -0.56103
 Alpha  occ. eigenvalues --   -0.50938  -0.43874  -0.36000
 Alpha virt. eigenvalues --    0.07313   0.14646   0.17045   0.17477   0.23127
 Alpha virt. eigenvalues --    0.27533   0.28797   0.29873   0.30174   0.35107
 Alpha virt. eigenvalues --    0.39732   0.42747   0.49990   0.54942   0.55035
 Alpha virt. eigenvalues --    0.57084   0.66967   0.72440   1.25544   1.28058
 Alpha virt. eigenvalues --    1.32065   1.35169   1.35688   1.38391   1.41705
 Alpha virt. eigenvalues --    1.52035   1.53125   1.54101   1.58562   1.77302
 Alpha virt. eigenvalues --    1.82328   1.83243   1.84854   1.92009   1.93273
 Alpha virt. eigenvalues --    2.03980   2.10325   2.15196   2.30782   2.31862
 Alpha virt. eigenvalues --    2.39156   2.47784   2.59888   2.66200   2.70045
 Alpha virt. eigenvalues --    2.75373   2.85499   3.07559   3.13730   3.25842
 Alpha virt. eigenvalues --    3.34634   3.65626  21.69100  22.23563
          Condensed to atoms (all electrons):
               1          2          3          4          5          6
     1  C    4.873985   0.623015   0.413791   0.413791  -0.038667  -0.038667
     2  C    0.623015   4.873985  -0.038667  -0.038667   0.413791   0.413791
     3  H    0.413791  -0.038667   0.531946  -0.028440  -0.007455   0.005202
     4  H    0.413791  -0.038667  -0.028440   0.531946   0.005202  -0.007455
     5  H   -0.038667   0.413791  -0.007455   0.005202   0.531946  -0.028440
     6  H   -0.038667   0.413791   0.005202  -0.007455  -0.028440   0.531946
 Mulliken charges:
               1
     1  C   -0.247248
     2  C   -0.247248
     3  H    0.123624
     4  H    0.123624
     5  H    0.123624
     6  H    0.123624
 Sum of Mulliken charges =  -0.00000
 Mulliken charges with hydrogens summed into heavy atoms:
               1
     1  C   -0.000000
     2  C    0.000000
 Electronic spatial extent (au):  <R**2>=            216.4540
 Charge=             -0.0000 electrons
 Dipole moment (field-independent basis, Debye):
    X=              0.0000    Y=             -0.0000    Z=              0.0000  Tot=              0.0000
 Quadrupole moment (field-independent basis, Debye-Ang):
   XX=            -12.1996   YY=            -12.1972   ZZ=            -15.6398
   XY=              0.0000   XZ=             -0.0000   YZ=              0.0000
 Traceless Quadrupole moment (field-independent basis, Debye-Ang):
   XX=              1.1459   YY=              1.1483   ZZ=             -2.2943
   XY=              0.0000   XZ=             -0.0000   YZ=              0.0000
 Octapole moment (field-independent basis, Debye-Ang**2):
  XXX=            -44.3637  YYY=            -34.3021  ZZZ=              0.0000  XYY=            -14.7850
  XXY=            -11.4363  XXZ=             -0.0000  XZZ=            -18.9579  YZZ=            -14.6612
  YYZ=              0.0000  XYZ=             -0.0000
 Hexadecapole moment (field-independent basis, Debye-Ang**3):
 XXXX=           -175.4114 YYYY=            -91.0934 ZZZZ=            -19.0149 XXXY=            -41.5878
 XXXZ=             -0.0000 YYYX=            -41.5796 YYYZ=              0.0000 ZZZX=             -0.0000
 ZZZY=              0.0000 XXYY=            -41.6596 XXZZ=            -38.4853 YYZZ=            -22.0929
 XXYZ=              0.0000 YYXZ=             -0.0000 ZZXY=            -17.7717
 N-N= 3.350063090849D+01 E-N=-2.487673200459D+02  KE= 7.816237403022D+01
 Unable to Open any file for archive entry.
 1\1\GINC-COMPUTE-0-18\FOpt\RwB97XD\Gen\C2H4\CAKIM2\02-Mar-2023\0\\#n w
 B97XD/Gen NoSymm SCF=XQC Opt=(MaxCycles=200) Freq Temp=373.150 Pressur
 e=1.00000\\C2H4\\0,1\C,0.5508563089,0.93743,0.\C,1.8734636911,0.93743,
 0.\H,-0.0181979793,0.0147727444,0.\H,-0.0181979793,1.8600872556,0.\H,2
 .4425179793,0.0147727444,0.\H,2.4425179793,1.8600872556,0.\\Version=ES
 64L-G16RevC.01\HF=-78.5869429\RMSD=6.781e-09\RMSF=2.365e-05\Dipole=0.,
 0.,0.\Quadrupole=0.8519663,0.8537571,-1.7057234,0.,0.,0.\PG=D02H [C2"(
 C1.C1),SG(H4)]\\@
 The archive entry for this job was punched.


 THERE IS NO CURE FOR BIRTH AND DEATH SAVE TO ENJOY THE INTERVAL.

                               -- GEORGE SANTAYANA
 Job cpu time:       0 days  0 hours  2 minutes  6.7 seconds.
 Elapsed time:       0 days  0 hours  0 minutes  6.3 seconds.
 File lengths (MBytes):  RWF=      6 Int=      0 D2E=      0 Chk=      1 Scr=      1
 Normal termination of Gaussian 16 at Thu Mar  2 04:40:55 2023.
 Link1:  Proceeding to internal job step number  2.
 -------------------------------------------------------------------
 #N Geom=AllCheck Guess=TCheck SCRF=Check GenChk RwB97XD/ChkBas Freq
 -------------------------------------------------------------------
 1/6=200,10=4,29=7,30=1,38=1,40=1,112=373150,113=1000/1,3;
 2/12=2,15=1,40=1/2;
 3/5=7,6=2,11=2,14=-4,25=1,30=1,67=1,70=2,71=2,74=-58,82=7,116=1,140=1/1,2,3;
 4/5=101/1;
 5/5=2,8=3,13=1,38=6,98=1/2,8;
 8/6=4,10=90,11=11/1;
 11/6=1,8=1,9=11,15=111,16=1,31=1/1,2,10;
 10/6=1,31=1/2;
 6/7=2,8=2,9=2,10=2,28=1/1;
 7/8=1,10=1,25=1,30=1/1,2,3,16;
 1/6=200,10=4,30=1/3;
 99//99;
 Structure from the checkpoint file:  "/scratch/cakim2/502647/Gau-6631.chk"
 ----
 C2H4
 ----
 Charge =  0 Multiplicity = 1
 Redundant internal coordinates found in file.  (old form).
 C,0,0.5508563089,0.93743,0.
 C,0,1.8734636911,0.93743,0.
 H,0,-0.0181979793,0.0147727444,0.
 H,0,-0.0181979793,1.8600872556,0.
 H,0,2.4425179793,0.0147727444,0.
 H,0,2.4425179793,1.8600872556,0.
 Recover connectivity data from disk.

 GradGradGradGradGradGradGradGradGradGradGradGradGradGradGradGradGradGrad
 Berny optimization.
 Initialization pass.
                           ----------------------------
                           !    Initial Parameters    !
                           ! (Angstroms and Degrees)  !
 --------------------------                            --------------------------
 ! Name  Definition              Value          Derivative Info.                !
 --------------------------------------------------------------------------------
 ! R1    R(1,2)                  1.3226         calculate D2E/DX2 analytically  !
 ! R2    R(1,3)                  1.084          calculate D2E/DX2 analytically  !
 ! R3    R(1,4)                  1.084          calculate D2E/DX2 analytically  !
 ! R4    R(2,5)                  1.084          calculate D2E/DX2 analytically  !
 ! R5    R(2,6)                  1.084          calculate D2E/DX2 analytically  !
 ! A1    A(2,1,3)              121.6645         calculate D2E/DX2 analytically  !
 ! A2    A(2,1,4)              121.6645         calculate D2E/DX2 analytically  !
 ! A3    A(3,1,4)              116.6711         calculate D2E/DX2 analytically  !
 ! A4    A(1,2,5)              121.6645         calculate D2E/DX2 analytically  !
 ! A5    A(1,2,6)              121.6645         calculate D2E/DX2 analytically  !
 ! A6    A(5,2,6)              116.6711         calculate D2E/DX2 analytically  !
 ! D1    D(3,1,2,5)              0.0            calculate D2E/DX2 analytically  !
 ! D2    D(3,1,2,6)            180.0            calculate D2E/DX2 analytically  !
 ! D3    D(4,1,2,5)            180.0            calculate D2E/DX2 analytically  !
 ! D4    D(4,1,2,6)              0.0            calculate D2E/DX2 analytically  !
 --------------------------------------------------------------------------------
 Trust Radius=3.00D-01 FncErr=1.00D-07 GrdErr=1.00D-07 EigMax=2.50D+02 EigMin=1.00D-04
 Number of steps in this run=      2 maximum allowed number of steps=      2.
 GradGradGradGradGradGradGradGradGradGradGradGradGradGradGradGradGradGrad

                          Input orientation:                          
 ---------------------------------------------------------------------
 Center     Atomic      Atomic             Coordinates (Angstroms)
 Number     Number       Type             X           Y           Z
 ---------------------------------------------------------------------
      1          6           0        0.550856    0.937430   -0.000000
      2          6           0        1.873464    0.937430    0.000000
      3          1           0       -0.018198    0.014773    0.000000
      4          1           0       -0.018198    1.860087   -0.000000
      5          1           0        2.442518    0.014773   -0.000000
      6          1           0        2.442518    1.860087    0.000000
 ---------------------------------------------------------------------
                    Distance matrix (angstroms):
                    1          2          3          4          5
     1  C    0.000000
     2  C    1.322607   0.000000
     3  H    1.084029   2.104681   0.000000
     4  H    1.084029   2.104681   1.845315   0.000000
     5  H    2.104681   1.084029   2.460716   3.075761   0.000000
     6  H    2.104681   1.084029   3.075761   2.460716   1.845315
                    6
     6  H    0.000000
 Symmetry turned off by external request.
 Stoichiometry    C2H4
 Framework group  D2H[C2"(C.C),SG(H4)]
 Deg. of freedom     3
 Full point group                 D2H     NOp   8
 Rotational constants (GHZ):         147.2621926          30.4477352          25.2310060
 Basis read from chk: "/scratch/cakim2/502647/Gau-6631.chk" (5D, 7F)
    62 basis functions,   102 primitive gaussians,    64 cartesian basis functions
     8 alpha electrons        8 beta electrons
       nuclear repulsion energy        33.5014613751 Hartrees.
 NAtoms=    6 NActive=    6 NUniq=    6 SFac= 1.00D+00 NAtFMM=   60 NAOKFM=F Big=F
 Integral buffers will be    131072 words long.
 Raffenetti 2 integral format.
 Two-electron integral symmetry is turned off.
 Nuclear repulsion after empirical dispersion term =       33.5006309085 Hartrees.
 One-electron integrals computed using PRISM.
 NBasis=    62 RedAO= T EigKep=  8.62D-04  NBF=    62
 NBsUse=    62 1.00D-06 EigRej= -1.00D+00 NBFU=    62
 Initial guess from the checkpoint file:  "/scratch/cakim2/502647/Gau-6631.chk"
 B after Tr=     0.000000    0.000000    0.000000
         Rot=    1.000000    0.000000    0.000000    0.000000 Ang=   0.00 deg.
 Keep R1 ints in memory in canonical form, NReq=25284706.
 Requested convergence on RMS density matrix=1.00D-08 within  32 cycles.
 Requested convergence on MAX density matrix=1.00D-06.
 Requested convergence on             energy=1.00D-06.
 No special actions if energy rises.
 SCF Done:  E(RwB97XD) =  -78.5869429055     A.U. after    1 cycles
            NFock=  1  Conv=0.94D-09     -V/T= 2.0054
 QCSCF skips out because SCF is already converged.
 DoSCS=F DFT=T ScalE2(SS,OS)=  1.000000  1.000000
 Range of M.O.s used for correlation:     1    62
 NBasis=    62 NAE=     8 NBE=     8 NFC=     0 NFV=     0
 NROrb=     62 NOA=     8 NOB=     8 NVA=    54 NVB=    54

 **** Warning!!: The largest alpha MO coefficient is  0.14271567D+02

 Symmetrizing basis deriv contribution to polar:
 IMax=3 JMax=2 DiffMx= 0.00D+00
 G2DrvN: will do     7 centers at a time, making    1 passes.
 Calling FoFCou, ICntrl=  3107 FMM=F I1Cent=   0 AccDes= 0.00D+00.
 End of G2Drv F.D. properties file   721 does not exist.
 End of G2Drv F.D. properties file   722 does not exist.
 End of G2Drv F.D. properties file   788 does not exist.
          IDoAtm=111111
          Differentiating once with respect to electric field.
                with respect to dipole field.
          Differentiating once with respect to nuclear coordinates.
 Keep R1 ints in memory in canonical form, NReq=25206069.
          There are    21 degrees of freedom in the 1st order CPHF.  IDoFFX=6 NUNeed=     3.
     18 vectors produced by pass  0 Test12= 2.06D-15 4.76D-09 XBig12= 1.62D+01 3.24D+00.
 AX will form    18 AO Fock derivatives at one time.
     18 vectors produced by pass  1 Test12= 2.06D-15 4.76D-09 XBig12= 1.10D+00 4.64D-01.
     18 vectors produced by pass  2 Test12= 2.06D-15 4.76D-09 XBig12= 2.70D-02 7.63D-02.
     18 vectors produced by pass  3 Test12= 2.06D-15 4.76D-09 XBig12= 1.70D-04 6.55D-03.
     18 vectors produced by pass  4 Test12= 2.06D-15 4.76D-09 XBig12= 9.49D-07 3.69D-04.
     18 vectors produced by pass  5 Test12= 2.06D-15 4.76D-09 XBig12= 4.37D-09 1.88D-05.
     12 vectors produced by pass  6 Test12= 2.06D-15 4.76D-09 XBig12= 1.72D-11 1.67D-06.
      3 vectors produced by pass  7 Test12= 2.06D-15 4.76D-09 XBig12= 5.37D-14 8.34D-08.
      1 vectors produced by pass  8 Test12= 2.06D-15 4.76D-09 XBig12= 2.52D-16 5.36D-09.
 InvSVY:  IOpt=1 It=  1 EMax= 1.79D-16
 Solved reduced A of dimension   124 with    21 vectors.
 Isotropic polarizability for W=    0.000000       23.99 Bohr**3.
 End of Minotr F.D. properties file   721 does not exist.
 End of Minotr F.D. properties file   722 does not exist.
 End of Minotr F.D. properties file   788 does not exist.

 **********************************************************************

            Population analysis using the SCF Density.

 **********************************************************************

 Alpha  occ. eigenvalues --  -10.28400 -10.28301  -0.86457  -0.67427  -0.56103
 Alpha  occ. eigenvalues --   -0.50938  -0.43874  -0.36000
 Alpha virt. eigenvalues --    0.07313   0.14646   0.17045   0.17477   0.23127
 Alpha virt. eigenvalues --    0.27533   0.28797   0.29873   0.30174   0.35107
 Alpha virt. eigenvalues --    0.39732   0.42747   0.49990   0.54942   0.55035
 Alpha virt. eigenvalues --    0.57084   0.66967   0.72440   1.25544   1.28058
 Alpha virt. eigenvalues --    1.32065   1.35169   1.35688   1.38391   1.41705
 Alpha virt. eigenvalues --    1.52035   1.53125   1.54101   1.58562   1.77302
 Alpha virt. eigenvalues --    1.82328   1.83243   1.84854   1.92009   1.93273
 Alpha virt. eigenvalues --    2.03980   2.10325   2.15196   2.30782   2.31862
 Alpha virt. eigenvalues --    2.39156   2.47784   2.59888   2.66200   2.70045
 Alpha virt. eigenvalues --    2.75373   2.85499   3.07559   3.13730   3.25842
 Alpha virt. eigenvalues --    3.34634   3.65626  21.69100  22.23563
          Condensed to atoms (all electrons):
               1          2          3          4          5          6
     1  C    4.873985   0.623015   0.413791   0.413791  -0.038667  -0.038667
     2  C    0.623015   4.873985  -0.038667  -0.038667   0.413791   0.413791
     3  H    0.413791  -0.038667   0.531946  -0.028440  -0.007455   0.005202
     4  H    0.413791  -0.038667  -0.028440   0.531946   0.005202  -0.007455
     5  H   -0.038667   0.413791  -0.007455   0.005202   0.531946  -0.028440
     6  H   -0.038667   0.413791   0.005202  -0.007455  -0.028440   0.531946
 Mulliken charges:
               1
     1  C   -0.247248
     2  C   -0.247248
     3  H    0.123624
     4  H    0.123624
     5  H    0.123624
     6  H    0.123624
 Sum of Mulliken charges =   0.00000
 Mulliken charges with hydrogens summed into heavy atoms:
               1
     1  C    0.000000
     2  C   -0.000000
 APT charges:
               1
     1  C   -0.079662
     2  C   -0.079662
     3  H    0.039831
     4  H    0.039831
     5  H    0.039831
     6  H    0.039831
 Sum of APT charges =   0.00000
 APT charges with hydrogens summed into heavy atoms:
               1
     1  C    0.000000
     2  C    0.000000
 Electronic spatial extent (au):  <R**2>=            216.4540
 Charge=              0.0000 electrons
 Dipole moment (field-independent basis, Debye):
    X=             -0.0000    Y=             -0.0000    Z=              0.0000  Tot=              0.0000
 Quadrupole moment (field-independent basis, Debye-Ang):
   XX=            -12.1996   YY=            -12.1972   ZZ=            -15.6398
   XY=             -0.0000   XZ=             -0.0000   YZ=              0.0000
 Traceless Quadrupole moment (field-independent basis, Debye-Ang):
   XX=              1.1459   YY=              1.1483   ZZ=             -2.2943
   XY=             -0.0000   XZ=             -0.0000   YZ=              0.0000
 Octapole moment (field-independent basis, Debye-Ang**2):
  XXX=            -44.3637  YYY=            -34.3021  ZZZ=              0.0000  XYY=            -14.7850
  XXY=            -11.4363  XXZ=             -0.0000  XZZ=            -18.9579  YZZ=            -14.6612
  YYZ=              0.0000  XYZ=             -0.0000
 Hexadecapole moment (field-independent basis, Debye-Ang**3):
 XXXX=           -175.4114 YYYY=            -91.0934 ZZZZ=            -19.0149 XXXY=            -41.5878
 XXXZ=             -0.0000 YYYX=            -41.5796 YYYZ=              0.0000 ZZZX=             -0.0000
 ZZZY=              0.0000 XXYY=            -41.6596 XXZZ=            -38.4853 YYZZ=            -22.0929
 XXYZ=              0.0000 YYXZ=             -0.0000 ZZXY=            -17.7717
 N-N= 3.350063090849D+01 E-N=-2.487673200611D+02  KE= 7.816237403458D+01
  Exact polarizability:      34.632       0.000      21.511       0.000       0.000      15.819
 Approx polarizability:      35.706       0.000      20.680       0.000       0.000      15.488
 Calling FoFJK, ICntrl=    100127 FMM=F ISym2X=0 I1Cent= 0 IOpClX= 0 NMat=1 NMatS=1 NMatT=0.
 Full mass-weighted force constant matrix:
 Low frequencies ---  -12.7731   -0.0014    0.0007    0.0014    8.8278   14.7139
 Low frequencies ---  846.9203  989.5291 1001.3972
 Diagonal vibrational polarizability:
        0.1842026       0.0860774       3.2045298
 Harmonic frequencies (cm**-1), IR intensities (KM/Mole), Raman scattering
 activities (A**4/AMU), depolarization ratios for plane and unpolarized
 incident light, reduced masses (AMU), force constants (mDyne/A),
 and normal coordinates:
                      1                      2                      3
                      A                      A                      A
 Frequencies --    846.9203               989.5291              1001.3971
 Red. masses --      1.0426                 1.1607                 1.5196
 Frc consts  --      0.4406                 0.6696                 0.8978
 IR Inten    --      0.8389               116.5973                 0.0000
  Atom  AN      X      Y      Z        X      Y      Z        X      Y      Z
     1   6     0.00   0.04   0.00     0.00   0.00  -0.08     0.00   0.00   0.15
     2   6    -0.00   0.04   0.00    -0.00  -0.00  -0.08     0.00  -0.00  -0.15
     3   1     0.44  -0.24  -0.00     0.00  -0.00   0.50    -0.00   0.00  -0.49
     4   1    -0.44  -0.24  -0.00    -0.00  -0.00   0.50    -0.00   0.00  -0.49
     5   1    -0.44  -0.24  -0.00    -0.00  -0.00   0.50     0.00   0.00   0.49
     6   1     0.44  -0.24  -0.00     0.00  -0.00   0.50    -0.00   0.00   0.49
                      4                      5                      6
                      A                      A                      A
 Frequencies --   1070.5415              1249.8564              1394.7386
 Red. masses --      1.0078                 1.5262                 1.1952
 Frc consts  --      0.6805                 1.4047                 1.3698
 IR Inten    --      0.0000                 0.0000                 0.0000
  Atom  AN      X      Y      Z        X      Y      Z        X      Y      Z
     1   6     0.00   0.00   0.00     0.00   0.15  -0.00     0.09  -0.00   0.00
     2   6     0.00  -0.00  -0.00    -0.00  -0.15   0.00    -0.09  -0.00  -0.00
     3   1     0.00   0.00   0.50     0.47  -0.14  -0.00     0.45  -0.20  -0.00
     4   1    -0.00   0.00  -0.50    -0.47  -0.14   0.00     0.45   0.20  -0.00
     5   1     0.00   0.00  -0.50     0.47   0.14   0.00    -0.45  -0.20  -0.00
     6   1    -0.00   0.00   0.50    -0.47   0.14  -0.00    -0.45   0.20  -0.00
                      7                      8                      9
                      A                      A                      A
 Frequencies --   1479.7805              1717.2902              3149.3570
 Red. masses --      1.1119                 3.3164                 1.0478
 Frc consts  --      1.4346                 5.7624                 6.1229
 IR Inten    --     11.6432                 0.0000                15.1524
  Atom  AN      X      Y      Z        X      Y      Z        X      Y      Z
     1   6    -0.07  -0.00   0.00     0.32  -0.00   0.00    -0.04   0.00   0.00
     2   6    -0.07   0.00  -0.00    -0.32   0.00  -0.00    -0.04   0.00   0.00
     3   1     0.41  -0.28  -0.00    -0.22   0.38   0.00     0.25   0.43  -0.00
     4   1     0.41   0.28  -0.00    -0.22  -0.38   0.00     0.25  -0.43  -0.00
     5   1     0.41   0.28  -0.00     0.22   0.38  -0.00     0.25  -0.43  -0.00
     6   1     0.41  -0.28   0.00     0.22  -0.38  -0.00     0.25   0.43   0.00
                     10                     11                     12
                      A                      A                      A
 Frequencies --   3167.4555              3229.7301              3255.6429
 Red. masses --      1.0758                 1.1153                 1.1178
 Frc consts  --      6.3590                 6.8545                 6.9807
 IR Inten    --      0.0000                 0.0000                21.5063
  Atom  AN      X      Y      Z        X      Y      Z        X      Y      Z
     1   6    -0.06   0.00   0.00    -0.00  -0.07   0.00    -0.00  -0.07   0.00
     2   6     0.06  -0.00  -0.00     0.00   0.07   0.00    -0.00  -0.07  -0.00
     3   1     0.26   0.43  -0.00     0.26   0.42  -0.00     0.26   0.42  -0.00
     4   1     0.26  -0.43  -0.00    -0.26   0.42   0.00    -0.26   0.42   0.00
     5   1    -0.26   0.43   0.00     0.26  -0.42  -0.00    -0.26   0.42   0.00
     6   1    -0.26  -0.43   0.00    -0.26  -0.42   0.00     0.26   0.42   0.00

 -------------------
 - Thermochemistry -
 -------------------
 Temperature   373.150 Kelvin.  Pressure   1.00000 Atm.
 Atom     1 has atomic number  6 and mass  12.00000
 Atom     2 has atomic number  6 and mass  12.00000
 Atom     3 has atomic number  1 and mass   1.00783
 Atom     4 has atomic number  1 and mass   1.00783
 Atom     5 has atomic number  1 and mass   1.00783
 Atom     6 has atomic number  1 and mass   1.00783
 Molecular mass:    28.03130 amu.
 Principal axes and moments of inertia in atomic units:
                           1         2         3
     Eigenvalues --    12.25529  59.27341  71.52871
           X            1.00000  -0.00000  -0.00000
           Y            0.00000   1.00000  -0.00000
           Z            0.00000  -0.00000   1.00000
 This molecule is an asymmetric top.
 Rotational symmetry number  4.
 Rotational temperatures (Kelvin)      7.06747     1.46126     1.21090
 Rotational constants (GHZ):         147.26219    30.44774    25.23101
 Zero-point vibrational energy     134892.3 (Joules/Mol)
                                   32.24004 (Kcal/Mol)
 Vibrational temperatures:   1218.53  1423.71  1440.79  1540.27  1798.26
          (Kelvin)           2006.72  2129.07  2470.80  4531.22  4557.26
                             4646.86  4684.14
 
 Zero-point correction=                           0.051378 (Hartree/Particle)
 Thermal correction to Energy=                    0.055465
 Thermal correction to Enthalpy=                  0.056646
 Thermal correction to Gibbs Free Energy=         0.024125
 Sum of electronic and zero-point Energies=            -78.535565
 Sum of electronic and thermal Energies=               -78.531478
 Sum of electronic and thermal Enthalpies=             -78.530297
 Sum of electronic and thermal Free Energies=          -78.562818
 
                     E (Thermal)             CV                S
                      KCal/Mol        Cal/Mol-Kelvin    Cal/Mol-Kelvin
 Total                   34.805              9.702             54.689
 Electronic               0.000              0.000              0.000
 Translational            1.112              2.981             37.042
 Rotational               1.112              2.981             16.506
 Vibrational             32.580              3.740              1.142
                       Q            Log10(Q)             Ln(Q)
 Total Bot       0.135990D-08         -8.866493        -20.415855
 Total V=0       0.103698D+11         10.015769         23.062159
 Vib (Bot)       0.147291D-18        -18.831824        -43.361878
 Vib (V=0)       0.112315D+01          0.050438          0.116137
 Electronic      0.100000D+01          0.000000          0.000000
 Translational   0.102221D+08          7.009540         16.140063
 Rotational      0.903214D+03          2.955791          6.805959
 -------------------------------------------------------------------
 Center     Atomic                   Forces (Hartrees/Bohr)
 Number     Number              X              Y              Z
 -------------------------------------------------------------------
      1        6           0.000066357    0.000000000    0.000000000
      2        6          -0.000066357   -0.000000000   -0.000000000
      3        1          -0.000009254   -0.000015188   -0.000000000
      4        1          -0.000009254    0.000015188   -0.000000000
      5        1           0.000009254   -0.000015188    0.000000000
      6        1           0.000009254    0.000015188    0.000000000
 -------------------------------------------------------------------
 Cartesian Forces:  Max     0.000066357 RMS     0.000023654
 FormGI is forming the generalized inverse of G from B-inverse, IUseBI=4.

 GradGradGradGradGradGradGradGradGradGradGradGradGradGradGradGradGradGrad
 Berny optimization.
 Internal  Forces:  Max     0.000047849 RMS     0.000015394
 Search for a local minimum.
 Step number   1 out of a maximum of    2
 All quantities printed in internal units (Hartrees-Bohrs-Radians)
 Second derivative matrix not updated -- analytic derivatives used.
 The second derivative matrix:
                          R1        R2        R3        R4        R5
           R1           0.65785
           R2           0.00619   0.36133
           R3           0.00619   0.00166   0.36133
           R4           0.00619   0.00080  -0.00041   0.36133
           R5           0.00619  -0.00041   0.00080   0.00166   0.36133
           A1           0.01114   0.00523  -0.01155  -0.00304   0.00410
           A2           0.01114  -0.01155   0.00523   0.00410  -0.00304
           A3          -0.02228   0.00632   0.00632  -0.00106  -0.00106
           A4           0.01114  -0.00304   0.00410   0.00523  -0.01155
           A5           0.01114   0.00410  -0.00304  -0.01155   0.00523
           A6          -0.02228  -0.00106  -0.00106   0.00632   0.00632
           D1           0.00000   0.00000   0.00000  -0.00000   0.00000
           D2           0.00000  -0.00000  -0.00000  -0.00000   0.00000
           D3          -0.00000  -0.00000   0.00000  -0.00000  -0.00000
           D4          -0.00000  -0.00000  -0.00000  -0.00000  -0.00000
                          A1        A2        A3        A4        A5
           A1           0.08256
           A2          -0.04612   0.08256
           A3          -0.03644  -0.03644   0.07289
           A4          -0.00839   0.00989  -0.00151   0.08256
           A5           0.00989  -0.00839  -0.00151  -0.04612   0.08256
           A6          -0.00151  -0.00151   0.00301  -0.03644  -0.03644
           D1          -0.00000   0.00000  -0.00000  -0.00000   0.00000
           D2          -0.00000  -0.00000  -0.00000  -0.00000   0.00000
           D3           0.00000   0.00000   0.00000  -0.00000  -0.00000
           D4           0.00000  -0.00000  -0.00000   0.00000   0.00000
                          A6        D1        D2        D3        D4
           A6           0.07289
           D1           0.00000   0.02668
           D2          -0.00000   0.00831   0.03261
           D3           0.00000   0.00831  -0.01600   0.03261
           D4          -0.00000  -0.01007   0.00831   0.00831   0.02668
 ITU=  0
     Eigenvalues ---    0.03323   0.03676   0.04861   0.10418   0.11002
     Eigenvalues ---    0.11074   0.14429   0.36113   0.36125   0.36324
     Eigenvalues ---    0.36331   0.66104
 Angle between quadratic step and forces=  21.62 degrees.
 Linear search not attempted -- first point.
 Iteration  1 RMS(Cart)=  0.00002222 RMS(Int)=  0.00000000
 Iteration  2 RMS(Cart)=  0.00000000 RMS(Int)=  0.00000000
 Variable       Old X    -DE/DX   Delta X   Delta X   Delta X     New X
                                 (Linear)    (Quad)   (Total)
    R1        2.49937  -0.00005   0.00000  -0.00008  -0.00008   2.49929
    R2        2.04852   0.00002   0.00000   0.00005   0.00005   2.04857
    R3        2.04852   0.00002   0.00000   0.00005   0.00005   2.04857
    R4        2.04852   0.00002   0.00000   0.00005   0.00005   2.04857
    R5        2.04852   0.00002   0.00000   0.00005   0.00005   2.04857
    A1        2.12345  -0.00000   0.00000   0.00001   0.00001   2.12345
    A2        2.12345  -0.00000   0.00000   0.00001   0.00001   2.12345
    A3        2.03629   0.00000   0.00000  -0.00002  -0.00002   2.03628
    A4        2.12345  -0.00000   0.00000   0.00001   0.00001   2.12345
    A5        2.12345  -0.00000   0.00000   0.00001   0.00001   2.12345
    A6        2.03629   0.00000   0.00000  -0.00002  -0.00002   2.03628
    D1        0.00000  -0.00000   0.00000  -0.00000   0.00000   0.00000
    D2        3.14159  -0.00000   0.00000  -0.00000   0.00000   3.14159
    D3        3.14159   0.00000   0.00000  -0.00000   0.00000   3.14159
    D4       -0.00000   0.00000   0.00000   0.00000   0.00000   0.00000
         Item               Value     Threshold  Converged?
 Maximum Force            0.000048     0.000450     YES
 RMS     Force            0.000015     0.000300     YES
 Maximum Displacement     0.000038     0.001800     YES
 RMS     Displacement     0.000022     0.001200     YES
 Predicted change in Energy=-3.628520D-09
 Optimization completed.
    -- Stationary point found.
                           ----------------------------
                           !   Optimized Parameters   !
                           ! (Angstroms and Degrees)  !
 --------------------------                            --------------------------
 ! Name  Definition              Value          Derivative Info.                !
 --------------------------------------------------------------------------------
 ! R1    R(1,2)                  1.3226         -DE/DX =    0.0                 !
 ! R2    R(1,3)                  1.084          -DE/DX =    0.0                 !
 ! R3    R(1,4)                  1.084          -DE/DX =    0.0                 !
 ! R4    R(2,5)                  1.084          -DE/DX =    0.0                 !
 ! R5    R(2,6)                  1.084          -DE/DX =    0.0                 !
 ! A1    A(2,1,3)              121.6645         -DE/DX =    0.0                 !
 ! A2    A(2,1,4)              121.6645         -DE/DX =    0.0                 !
 ! A3    A(3,1,4)              116.6711         -DE/DX =    0.0                 !
 ! A4    A(1,2,5)              121.6645         -DE/DX =    0.0                 !
 ! A5    A(1,2,6)              121.6645         -DE/DX =    0.0                 !
 ! A6    A(5,2,6)              116.6711         -DE/DX =    0.0                 !
 ! D1    D(3,1,2,5)              0.0            -DE/DX =    0.0                 !
 ! D2    D(3,1,2,6)            180.0            -DE/DX =    0.0                 !
 ! D3    D(4,1,2,5)            180.0            -DE/DX =    0.0                 !
 ! D4    D(4,1,2,6)              0.0            -DE/DX =    0.0                 !
 --------------------------------------------------------------------------------
 GradGradGradGradGradGradGradGradGradGradGradGradGradGradGradGradGradGrad

 Dipole is zero, so no output in dipole orientation.

 ----------------------------------------------------------------------

 Electric dipole moment (input orientation):
 (Debye = 10**-18 statcoulomb cm , SI units = C m)
                  (au)            (Debye)         (10**-30 SI)
   Tot        0.000000D+00      0.000000D+00      0.000000D+00
   x          0.000000D+00      0.000000D+00      0.000000D+00
   y          0.000000D+00      0.000000D+00      0.000000D+00
   z          0.000000D+00      0.000000D+00      0.000000D+00

 Dipole polarizability, Alpha (input orientation).
 (esu units = cm**3 , SI units = C**2 m**2 J**-1)
 Alpha(0;0):
               (au)            (10**-24 esu)      (10**-40 SI)
   iso        0.239874D+02      0.355457D+01      0.395500D+01
   aniso      0.167110D+02      0.247631D+01      0.275527D+01
   xx         0.346324D+02      0.513199D+01      0.571011D+01
   yx         0.000000D+00      0.000000D+00      0.000000D+00
   yy         0.215109D+02      0.318758D+01      0.354666D+01
   zx         0.000000D+00      0.000000D+00      0.000000D+00
   zy         0.000000D+00      0.000000D+00      0.000000D+00
   zz         0.158191D+02      0.234414D+01      0.260821D+01

 ----------------------------------------------------------------------
 Unable to Open any file for archive entry.
 1\1\GINC-COMPUTE-0-18\Freq\RwB97XD\Gen\C2H4\CAKIM2\02-Mar-2023\0\\#N G
 eom=AllCheck Guess=TCheck SCRF=Check GenChk RwB97XD/ChkBas Freq\\C2H4\
 \0,1\C,0.5508563089,0.93743,0.\C,1.8734636911,0.93743,0.\H,-0.01819797
 93,0.0147727444,0.\H,-0.0181979793,1.8600872556,0.\H,2.4425179793,0.01
 47727444,0.\H,2.4425179793,1.8600872556,0.\\Version=ES64L-G16RevC.01\H
 F=-78.5869429\RMSD=9.391e-10\RMSF=2.365e-05\ZeroPoint=0.0513778\Therma
 l=0.0554646\ETot=-78.5314783\HTot=-78.5302966\GTot=-78.5628176\Dipole=
 0.,0.,0.\DipoleDeriv=-0.0232773,0.,0.,0.,0.1055427,0.,0.,0.,-0.3212515
 ,-0.0232773,0.,0.,0.,0.1055427,0.,0.,0.,-0.3212515,0.0116387,-0.050224
 3,0.,-0.0822622,-0.0527714,0.,0.,0.,0.1606257,0.0116387,0.0502243,0.,0
 .0822622,-0.0527714,0.,0.,0.,0.1606257,0.0116387,0.0502243,0.,0.082262
 2,-0.0527714,0.,0.,0.,0.1606257,0.0116387,-0.0502243,0.,-0.0822622,-0.
 0527714,0.,0.,0.,0.1606257\Polar=34.6324064,0.,21.5108784,0.,0.,15.819
 0579\Quadrupole=0.8519662,0.8537571,-1.7057233,0.,0.,0.\PG=D02H [C2"(C
 1.C1),SG(H4)]\NImag=0\\0.88606525,0.,0.64518962,0.,0.,0.11567990,-0.59
 698469,0.,0.,0.88606525,0.,-0.11622901,0.,0.,0.64518962,0.,0.,-0.05173
 120,0.,0.,0.11567990,-0.13124242,-0.12122863,0.,-0.01329786,-0.0303748
 9,0.,0.13851805,-0.12641229,-0.26861926,0.,0.00272556,0.00413896,0.,0.
 13689325,0.27721521,0.,0.,-0.03848212,0.,0.,0.00650777,0.,0.,0.0249705
 1,-0.13124242,0.12122863,0.,-0.01329786,0.03037489,0.,0.00985927,-0.01
 378072,0.,0.13851805,0.12641229,-0.26861926,0.,-0.00272556,0.00413896,
 0.,0.01378072,-0.01555027,0.,-0.13689325,0.27721521,0.,0.,-0.03848212,
 0.,0.,0.00650777,0.,0.,0.00311125,0.,0.,0.02497051,-0.01329786,0.03037
 489,0.,-0.13124242,0.12122863,0.,0.00106019,-0.00017768,0.,-0.00489723
 ,-0.00075187,0.,0.13851805,-0.00272556,0.00413896,0.,0.12641229,-0.268
 61926,0.,0.00017768,0.00129865,0.,-0.00075187,0.00151672,0.,-0.1368932
 5,0.27721521,0.,0.,0.00650777,0.,0.,-0.03848212,0.,0.,-0.00897921,0.,0
 .,0.01287180,0.,0.,0.02497051,-0.01329786,-0.03037489,0.,-0.13124242,-
 0.12122863,0.,-0.00489723,0.00075187,0.,0.00106019,0.00017768,0.,0.009
 85927,0.01378072,0.,0.13851805,0.00272556,0.00413896,0.,-0.12641229,-0
 .26861926,0.,0.00075187,0.00151672,0.,-0.00017768,0.00129865,0.,-0.013
 78072,-0.01555027,0.,0.13689325,0.27721521,0.,0.,0.00650777,0.,0.,-0.0
 3848212,0.,0.,0.01287180,0.,0.,-0.00897921,0.,0.,0.00311125,0.,0.,0.02
 497051\\-0.00006636,0.,0.,0.00006636,0.,0.,0.00000925,0.00001519,0.,0.
 00000925,-0.00001519,0.,-0.00000925,0.00001519,0.,-0.00000925,-0.00001
 519,0.\\\@
 The archive entry for this job was punched.


 IF AT FIRST YOU DON'T SUCCEED, TRY LOOKING IN 
 THE WASTEBASKET FOR THE DIRECTIONS.
 Job cpu time:       0 days  0 hours  1 minutes 28.3 seconds.
 Elapsed time:       0 days  0 hours  0 minutes  4.1 seconds.
 File lengths (MBytes):  RWF=      6 Int=      0 D2E=      0 Chk=      1 Scr=      1
 Normal termination of Gaussian 16 at Thu Mar  2 04:41:00 2023.
